 Entering Gaussian System, Link 0=/home/artemiy/opt/gaussian/g16/g16
 Input=1,1,1,5,5,5-Hexafluoro-2,4-pentanedione_G4.gjf
 Output=1,1,1,5,5,5-Hexafluoro-2,4-pentanedione_G4.log
 Initial command:
 /home/artemiy/opt/gaussian/g16/l1.exe "/home/artemiy/opt/gaussian/scr/Gau-1817.inp" -scrdir="/home/artemiy/opt/gaussian/scr/"
 Entering Link 1 = /home/artemiy/opt/gaussian/g16/l1.exe PID=      1820.
  
 Copyright (c) 1988,1990,1992,1993,1995,1998,2003,2009,2016,
            Gaussian, Inc.  All Rights Reserved.
  
 This is part of the Gaussian(R) 16 program.  It is based on
 the Gaussian(R) 09 system (copyright 2009, Gaussian, Inc.),
 the Gaussian(R) 03 system (copyright 2003, Gaussian, Inc.),
 the Gaussian(R) 98 system (copyright 1998, Gaussian, Inc.),
 the Gaussian(R) 94 system (copyright 1995, Gaussian, Inc.),
 the Gaussian 92(TM) system (copyright 1992, Gaussian, Inc.),
 the Gaussian 90(TM) system (copyright 1990, Gaussian, Inc.),
 the Gaussian 88(TM) system (copyright 1988, Gaussian, Inc.),
 the Gaussian 86(TM) system (copyright 1986, Carnegie Mellon
 University), and the Gaussian 82(TM) system (copyright 1983,
 Carnegie Mellon University). Gaussian is a federally registered
 trademark of Gaussian, Inc.
  
 This software contains proprietary and confidential information,
 including trade secrets, belonging to Gaussian, Inc.
  
 This software is provided under written license and may be
 used, copied, transmitted, or stored only in accord with that
 written license.
  
 The following legend is applicable only to US Government
 contracts under FAR:
  
                    RESTRICTED RIGHTS LEGEND
  
 Use, reproduction and disclosure by the US Government is
 subject to restrictions as set forth in subparagraphs (a)
 and (c) of the Commercial Computer Software - Restricted
 Rights clause in FAR 52.227-19.
  
 Gaussian, Inc.
 340 Quinnipiac St., Bldg. 40, Wallingford CT 06492
  
  
 ---------------------------------------------------------------
 Warning -- This program may not be used in any manner that
 competes with the business of Gaussian, Inc. or will provide
 assistance to any competitor of Gaussian, Inc.  The licensee
 of this program is prohibited from giving any competitor of
 Gaussian, Inc. access to this program.  By using this program,
 the user acknowledges that Gaussian, Inc. is engaged in the
 business of creating and licensing software in the field of
 computational chemistry and represents and warrants to the
 licensee that it is not a competitor of Gaussian, Inc. and that
 it will not use this program in any manner prohibited above.
 ---------------------------------------------------------------
  

 Cite this work as:
 Gaussian 16, Revision A.03,
 M. J. Frisch, G. W. Trucks, H. B. Schlegel, G. E. Scuseria, 
 M. A. Robb, J. R. Cheeseman, G. Scalmani, V. Barone, 
 G. A. Petersson, H. Nakatsuji, X. Li, M. Caricato, A. V. Marenich, 
 J. Bloino, B. G. Janesko, R. Gomperts, B. Mennucci, H. P. Hratchian, 
 J. V. Ortiz, A. F. Izmaylov, J. L. Sonnenberg, D. Williams-Young, 
 F. Ding, F. Lipparini, F. Egidi, J. Goings, B. Peng, A. Petrone, 
 T. Henderson, D. Ranasinghe, V. G. Zakrzewski, J. Gao, N. Rega, 
 G. Zheng, W. Liang, M. Hada, M. Ehara, K. Toyota, R. Fukuda, 
 J. Hasegawa, M. Ishida, T. Nakajima, Y. Honda, O. Kitao, H. Nakai, 
 T. Vreven, K. Throssell, J. A. Montgomery, Jr., J. E. Peralta, 
 F. Ogliaro, M. J. Bearpark, J. J. Heyd, E. N. Brothers, K. N. Kudin, 
 V. N. Staroverov, T. A. Keith, R. Kobayashi, J. Normand, 
 K. Raghavachari, A. P. Rendell, J. C. Burant, S. S. Iyengar, 
 J. Tomasi, M. Cossi, J. M. Millam, M. Klene, C. Adamo, R. Cammi, 
 J. W. Ochterski, R. L. Martin, K. Morokuma, O. Farkas, 
 J. B. Foresman, and D. J. Fox, Gaussian, Inc., Wallingford CT, 2016.
 
 ******************************************
 Gaussian 16:  ES64L-G16RevA.03 25-Dec-2016
                23-Nov-2021 
 ******************************************
 %mem=47GB
 %nprocshared=7
 Will use up to    7 processors via shared memory.
 -------------
 # g4 geom=gic
 -------------
 1/18=20,19=15,26=3,38=1,145=2/1,3;
 2/9=110,12=2,17=6,18=5,40=1/2;
 3/5=35,7=104,11=2,25=1,30=1,71=1,74=-5/1,2,3;
 4//1;
 5/5=2,38=5/2;
 6/7=2,8=2,9=2,10=2,28=1/1;
 7//1,2,3,16;
 1/18=20,19=15,26=3,145=2/3(2);
 2/9=110/2;
 99//99;
 2/9=110/2;
 3/5=35,7=104,11=2,25=1,30=1,71=1,74=-5/1,2,3;
 4/5=5,16=3,69=1/1;
 5/5=2,38=5/2;
 7//1,2,3,16;
 1/18=20,19=15,26=3,145=2/3(-5);
 2/9=110/2;
 6/7=2,8=2,9=2,10=2,19=2,28=1/1;
 99/9=1/99;
 -------------------
 CAS 1522-22-1
 -------------------
 Symbolic Z-matrix:
 Charge =  0 Multiplicity = 1
 C                    -1.85689  -0.16792   0.22921 
 F                    -1.06765  -0.91521   1.014 
 F                    -2.69533   0.50225   1.0029 
 F                    -2.57289  -1.01609  -0.5243 
 C                    -1.00825   0.77087  -0.68483 
 O                    -1.20031   1.94297  -0.72723 
 C                    -0.00008   0.00096  -1.51251 
 C                     1.00755  -0.77001  -0.68518 
 O                     1.19907  -1.94217  -0.72839 
 C                     1.85702   0.16768   0.22923 
 F                     2.69303  -0.50374   1.0045 
 F                     2.57576   1.0136   -0.52417 
 F                     1.06853   0.91737   1.01255 
 H                    -0.53762  -0.71631  -2.14092 
 H                     0.53777   0.71896  -2.13983 
 
 Initializing the GIC definitions file.

 GradGradGradGradGradGradGradGradGradGradGradGradGradGradGradGradGradGrad
 Berny optimization.
 Initialization pass.
                           ----------------------------
                           !    Initial Parameters    !
                           ! (Angstroms and Degrees)  !
 --------------------------                            --------------------------
 ! Name  Definition              Value          Derivative Info.                !
 --------------------------------------------------------------------------------
 ! R1    R(1,2)                  1.3406         estimate D2E/DX2                !
 ! R2    R(1,3)                  1.3231         estimate D2E/DX2                !
 ! R3    R(1,4)                  1.3416         estimate D2E/DX2                !
 ! R4    R(1,5)                  1.5611         estimate D2E/DX2                !
 ! R5    R(5,6)                  1.1885         estimate D2E/DX2                !
 ! R6    R(5,7)                  1.5147         estimate D2E/DX2                !
 ! R7    R(7,8)                  1.5147         estimate D2E/DX2                !
 ! R8    R(7,14)                 1.0947         estimate D2E/DX2                !
 ! R9    R(7,15)                 1.0947         estimate D2E/DX2                !
 ! R10   R(8,9)                  1.1885         estimate D2E/DX2                !
 ! R11   R(8,10)                 1.5611         estimate D2E/DX2                !
 ! R12   R(10,11)                1.3232         estimate D2E/DX2                !
 ! R13   R(10,12)                1.3416         estimate D2E/DX2                !
 ! R14   R(10,13)                1.3406         estimate D2E/DX2                !
 ! A1    A(2,1,3)              108.245          estimate D2E/DX2                !
 ! A2    A(2,1,4)              106.8929         estimate D2E/DX2                !
 ! A3    A(2,1,5)              110.9736         estimate D2E/DX2                !
 ! A4    A(3,1,4)              108.0866         estimate D2E/DX2                !
 ! A5    A(3,1,5)              112.4738         estimate D2E/DX2                !
 ! A6    A(4,1,5)              109.9659         estimate D2E/DX2                !
 ! A7    A(1,5,6)              121.7431         estimate D2E/DX2                !
 ! A8    A(1,5,7)              112.0934         estimate D2E/DX2                !
 ! A9    A(6,5,7)              126.1116         estimate D2E/DX2                !
 ! A10   A(5,7,8)              113.7687         estimate D2E/DX2                !
 ! A11   A(5,7,14)             108.6567         estimate D2E/DX2                !
 ! A12   A(5,7,15)             107.8656         estimate D2E/DX2                !
 ! A13   A(8,7,14)             107.861          estimate D2E/DX2                !
 ! A14   A(8,7,15)             108.6638         estimate D2E/DX2                !
 ! A15   A(14,7,15)            110.0028         estimate D2E/DX2                !
 ! A16   A(7,8,9)              126.1114         estimate D2E/DX2                !
 ! A17   A(7,8,10)             112.0984         estimate D2E/DX2                !
 ! A18   A(9,8,10)             121.7372         estimate D2E/DX2                !
 ! A19   A(8,10,11)            112.4707         estimate D2E/DX2                !
 ! A20   A(8,10,12)            109.9577         estimate D2E/DX2                !
 ! A21   A(8,10,13)            110.9834         estimate D2E/DX2                !
 ! A22   A(11,10,12)           108.0899         estimate D2E/DX2                !
 ! A23   A(11,10,13)           108.2414         estimate D2E/DX2                !
 ! A24   A(12,10,13)           106.895          estimate D2E/DX2                !
 ! D1    D(2,1,5,6)           -126.9599         estimate D2E/DX2                !
 ! D2    D(2,1,5,7)             55.5095         estimate D2E/DX2                !
 ! D3    D(3,1,5,6)             -5.5316         estimate D2E/DX2                !
 ! D4    D(3,1,5,7)            176.9378         estimate D2E/DX2                !
 ! D5    D(4,1,5,6)            114.9819         estimate D2E/DX2                !
 ! D6    D(4,1,5,7)            -62.5487         estimate D2E/DX2                !
 ! D7    D(1,5,7,8)            -60.6317         estimate D2E/DX2                !
 ! D8    D(1,5,7,14)            59.5285         estimate D2E/DX2                !
 ! D9    D(1,5,7,15)           178.7483         estimate D2E/DX2                !
 ! D10   D(6,5,7,8)            121.9679         estimate D2E/DX2                !
 ! D11   D(6,5,7,14)          -117.872          estimate D2E/DX2                !
 ! D12   D(6,5,7,15)             1.3478         estimate D2E/DX2                !
 ! D13   D(5,7,8,9)            121.9187         estimate D2E/DX2                !
 ! D14   D(5,7,8,10)           -60.7107         estimate D2E/DX2                !
 ! D15   D(14,7,8,9)             1.3107         estimate D2E/DX2                !
 ! D16   D(14,7,8,10)          178.6813         estimate D2E/DX2                !
 ! D17   D(15,7,8,9)          -117.9103         estimate D2E/DX2                !
 ! D18   D(15,7,8,10)           59.4602         estimate D2E/DX2                !
 ! D19   D(7,8,10,11)          176.8098         estimate D2E/DX2                !
 ! D20   D(7,8,10,12)          -62.6803         estimate D2E/DX2                !
 ! D21   D(7,8,10,13)           55.3813         estimate D2E/DX2                !
 ! D22   D(9,8,10,11)           -5.6878         estimate D2E/DX2                !
 ! D23   D(9,8,10,12)          114.8221         estimate D2E/DX2                !
 ! D24   D(9,8,10,13)         -127.1163         estimate D2E/DX2                !
 --------------------------------------------------------------------------------
 Trust Radius=3.00D-01 FncErr=1.00D-07 GrdErr=1.00D-06 EigMax=2.50D+02 EigMin=1.00D-04
 Number of steps in this run=     72 maximum allowed number of steps=    100.
 GradGradGradGradGradGradGradGradGradGradGradGradGradGradGradGradGradGrad

                          Input orientation:                          
 ---------------------------------------------------------------------
 Center     Atomic      Atomic             Coordinates (Angstroms)
 Number     Number       Type             X           Y           Z
 ---------------------------------------------------------------------
      1          6           0       -1.856891   -0.167922    0.229210
      2          9           0       -1.067654   -0.915207    1.014003
      3          9           0       -2.695327    0.502246    1.002898
      4          9           0       -2.572886   -1.016087   -0.524304
      5          6           0       -1.008247    0.770866   -0.684834
      6          8           0       -1.200310    1.942975   -0.727230
      7          6           0       -0.000079    0.000965   -1.512514
      8          6           0        1.007549   -0.770013   -0.685181
      9          8           0        1.199067   -1.942173   -0.728394
     10          6           0        1.857020    0.167684    0.229234
     11          9           0        2.693028   -0.503740    1.004501
     12          9           0        2.575758    1.013600   -0.524165
     13          9           0        1.068529    0.917373    1.012549
     14          1           0       -0.537623   -0.716307   -2.140922
     15          1           0        0.537770    0.718961   -2.139829
 ---------------------------------------------------------------------
                    Distance matrix (angstroms):
                    1          2          3          4          5
     1  C    0.000000
     2  F    1.340608   0.000000
     3  F    1.323138   2.158383   0.000000
     4  F    1.341572   2.154597   2.157006   0.000000
     5  C    1.561089   2.394247   2.401424   2.380560   0.000000
     6  O    2.408685   3.349432   2.702613   3.268209   1.188497
     7  C    2.551446   2.891777   3.720611   2.937735   1.514663
     8  C    3.066536   2.686033   4.263748   3.592485   2.537270
     9  O    3.661127   3.037866   4.913132   3.889334   3.497816
    10  C    3.729044   3.215934   4.629725   4.646848   3.067426
    11  F    4.627701   3.783137   5.481458   5.507231   4.263556
    12  F    4.648866   4.400081   5.511602   5.534272   3.595807
    13  F    3.217075   2.814539   3.786693   4.400010   2.686182
    14  H    2.767439   3.205315   4.003020   2.616413   2.133861
    15  H    3.483290   3.898018   4.514047   3.911073   2.123646
                    6          7          8          9         10
     6  O    0.000000
     7  C    2.414255   0.000000
     8  C    3.498101   1.514663   0.000000
     9  O    4.566332   2.414246   1.188489   0.000000
    10  C    3.662479   2.551529   1.561099   2.408620   0.000000
    11  F    4.913592   3.720607   2.401409   2.702580   1.323162
    12  F    3.894055   2.938912   2.380437   3.267045   1.341555
    13  F    3.037486   2.890964   2.394426   3.350362   1.340647
    14  H    3.083741   1.094683   2.123588   2.552269   3.483303
    15  H    2.552366   1.094680   2.133949   3.084007   2.767090
                   11         12         13         14         15
    11  F    0.000000
    12  F    2.157056   0.000000
    13  F    2.158384   2.154644   0.000000
    14  H    4.513976   3.911474   3.897822   0.000000
    15  H    4.003367   2.617361   3.202899   1.793451   0.000000
 Stoichiometry    C5H2F6O2
 Framework group  C1[X(C5H2F6O2)]
 Deg. of freedom    39
 Full point group                 C1      NOp   1
 Largest Abelian subgroup         C1      NOp   1
 Largest concise Abelian subgroup C1      NOp   1
                         Standard orientation:                         
 ---------------------------------------------------------------------
 Center     Atomic      Atomic             Coordinates (Angstroms)
 Number     Number       Type             X           Y           Z
 ---------------------------------------------------------------------
      1          6           0        1.855541   -0.182186   -0.264513
      2          9           0        1.060594   -0.923393   -1.049306
      3          9           0        2.699095    0.481531   -1.038201
      4          9           0        2.565008   -1.035818    0.489001
      5          6           0        1.014125    0.763086    0.649531
      6          8           0        1.215175    1.933687    0.691927
      7          6           0        0.000080    0.000943    1.477211
      8          6           0       -1.013434   -0.762282    0.649877
      9          8           0       -1.213939   -1.932938    0.693091
     10          6           0       -1.855685    0.181904   -0.264538
     11          9           0       -2.696820   -0.483085   -1.039804
     12          9           0       -2.567913    1.033310    0.488862
     13          9           0       -1.061466    0.925522   -1.047852
     14          1           0        0.532105   -0.720433    2.105619
     15          1           0       -0.532245    0.723044    2.104526
 ---------------------------------------------------------------------
 Rotational constants (GHZ):           1.3614284           0.5752013           0.5364678
 Standard basis: GTBas3 (6D, 7F)
 There are   413 symmetry adapted cartesian basis functions of A   symmetry.
 There are   374 symmetry adapted basis functions of A   symmetry.
   374 basis functions,   586 primitive gaussians,   413 cartesian basis functions
    51 alpha electrons       51 beta electrons
       nuclear repulsion energy       938.2916273482 Hartrees.
 NAtoms=   15 NActive=   15 NUniq=   15 SFac= 1.00D+00 NAtFMM=   60 NAOKFM=F Big=F
 Integral buffers will be    131072 words long.
 Raffenetti 2 integral format.
 Two-electron integral symmetry is turned on.
 One-electron integrals computed using PRISM.
 NBasis=   374 RedAO= T EigKep=  5.75D-04  NBF=   374
 NBsUse=   374 1.00D-06 EigRej= -1.00D+00 NBFU=   374
 ExpMin= 1.61D-01 ExpMax= 7.00D+03 ExpMxC= 1.05D+03 IAcc=3 IRadAn=         5 AccDes= 0.00D+00
 Harris functional with IExCor=  402 and IRadAn=       5 diagonalized for initial guess.
 HarFok:  IExCor=  402 AccDes= 0.00D+00 IRadAn=         5 IDoV= 1 UseB2=F ITyADJ=14
 ICtDFT=  3500011 ScaDFX=  1.000000  1.000000  1.000000  1.000000
 FoFCou: FMM=F IPFlag=           0 FMFlag=      100000 FMFlg1=           0
         NFxFlg=           0 DoJE=T BraDBF=F KetDBF=T FulRan=T
         wScrn=  0.000000 ICntrl=       500 IOpCl=  0 I1Cent=   200000004 NGrid=           0
         NMat0=    1 NMatS0=      1 NMatT0=    0 NMatD0=    1 NMtDS0=    0 NMtDT0=    0
 Petite list used in FoFCou.
 Requested convergence on RMS density matrix=1.00D-08 within 128 cycles.
 Requested convergence on MAX density matrix=1.00D-06.
 Requested convergence on             energy=1.00D-06.
 No special actions if energy rises.
 Integral accuracy reduced to 1.0D-05 until final iterations.
 Initial convergence to 1.0D-05 achieved.  Increase integral accuracy.
 SCF Done:  E(RB3LYP) =  -941.259859869     A.U. after   13 cycles
            NFock= 13  Conv=0.61D-08     -V/T= 2.0057

 **********************************************************************

            Population analysis using the SCF density.

 **********************************************************************

 Orbital symmetries:
       Occupied  (A) (A) (A) (A) (A) (A) (A) (A) (A) (A) (A) (A)
                 (A) (A) (A) (A) (A) (A) (A) (A) (A) (A) (A) (A)
                 (A) (A) (A) (A) (A) (A) (A) (A) (A) (A) (A) (A)
                 (A) (A) (A) (A) (A) (A) (A) (A) (A) (A) (A) (A)
                 (A) (A) (A)
       Virtual   (A) (A) (A) (A) (A) (A) (A) (A) (A) (A) (A) (A)
                 (A) (A) (A) (A) (A) (A) (A) (A) (A) (A) (A) (A)
                 (A) (A) (A) (A) (A) (A) (A) (A) (A) (A) (A) (A)
                 (A) (A) (A) (A) (A) (A) (A) (A) (A) (A) (A) (A)
                 (A) (A) (A) (A) (A) (A) (A) (A) (A) (A) (A) (A)
                 (A) (A) (A) (A) (A) (A) (A) (A) (A) (A) (A) (A)
                 (A) (A) (A) (A) (A) (A) (A) (A) (A) (A) (A) (A)
                 (A) (A) (A) (A) (A) (A) (A) (A) (A) (A) (A) (A)
                 (A) (A) (A) (A) (A) (A) (A) (A) (A) (A) (A) (A)
                 (A) (A) (A) (A) (A) (A) (A) (A) (A) (A) (A) (A)
                 (A) (A) (A) (A) (A) (A) (A) (A) (A) (A) (A) (A)
                 (A) (A) (A) (A) (A) (A) (A) (A) (A) (A) (A) (A)
                 (A) (A) (A) (A) (A) (A) (A) (A) (A) (A) (A) (A)
                 (A) (A) (A) (A) (A) (A) (A) (A) (A) (A) (A) (A)
                 (A) (A) (A) (A) (A) (A) (A) (A) (A) (A) (A) (A)
                 (A) (A) (A) (A) (A) (A) (A) (A) (A) (A) (A) (A)
                 (A) (A) (A) (A) (A) (A) (A) (A) (A) (A) (A) (A)
                 (A) (A) (A) (A) (A) (A) (A) (A) (A) (A) (A) (A)
                 (A) (A) (A) (A) (A) (A) (A) (A) (A) (A) (A) (A)
                 (A) (A) (A) (A) (A) (A) (A) (A) (A) (A) (A) (A)
                 (A) (A) (A) (A) (A) (A) (A) (A) (A) (A) (A) (A)
                 (A) (A) (A) (A) (A) (A) (A) (A) (A) (A) (A) (A)
                 (A) (A) (A) (A) (A) (A) (A) (A) (A) (A) (A) (A)
                 (A) (A) (A) (A) (A) (A) (A) (A) (A) (A) (A) (A)
                 (A) (A) (A) (A) (A) (A) (A) (A) (A) (A) (A) (A)
                 (A) (A) (A) (A) (A) (A) (A) (A) (A) (A) (A) (A)
                 (A) (A) (A) (A) (A) (A) (A) (A) (A) (A) (A)
 The electronic state is 1-A.
 Alpha  occ. eigenvalues --  -24.75367 -24.75364 -24.74852 -24.74851 -24.74561
 Alpha  occ. eigenvalues --  -24.74559 -19.19121 -19.19120 -10.44656 -10.44655
 Alpha  occ. eigenvalues --  -10.32889 -10.32889 -10.24448  -1.33950  -1.33815
 Alpha  occ. eigenvalues --   -1.25064  -1.24869  -1.24658  -1.24630  -1.10839
 Alpha  occ. eigenvalues --   -1.10568  -0.84115  -0.76355  -0.73700  -0.66084
 Alpha  occ. eigenvalues --   -0.65017  -0.61516  -0.61367  -0.61244  -0.61043
 Alpha  occ. eigenvalues --   -0.57575  -0.52615  -0.50528  -0.50058  -0.49045
 Alpha  occ. eigenvalues --   -0.48971  -0.48512  -0.48095  -0.47594  -0.46032
 Alpha  occ. eigenvalues --   -0.45015  -0.44962  -0.44447  -0.43461  -0.43194
 Alpha  occ. eigenvalues --   -0.42856  -0.42586  -0.41855  -0.40935  -0.31082
 Alpha  occ. eigenvalues --   -0.29451
 Alpha virt. eigenvalues --   -0.08562  -0.05859   0.08327   0.08972   0.13672
 Alpha virt. eigenvalues --    0.13972   0.14970   0.16280   0.19673   0.20204
 Alpha virt. eigenvalues --    0.20892   0.21712   0.24517   0.25897   0.28537
 Alpha virt. eigenvalues --    0.30123   0.34279   0.35719   0.38670   0.41383
 Alpha virt. eigenvalues --    0.41812   0.42933   0.45811   0.47731   0.48895
 Alpha virt. eigenvalues --    0.53446   0.53803   0.56531   0.56881   0.57016
 Alpha virt. eigenvalues --    0.59912   0.62455   0.63053   0.66851   0.67286
 Alpha virt. eigenvalues --    0.68340   0.69168   0.70834   0.72507   0.74434
 Alpha virt. eigenvalues --    0.74812   0.76877   0.79234   0.80927   0.81100
 Alpha virt. eigenvalues --    0.81533   0.84309   0.87275   0.87442   0.88290
 Alpha virt. eigenvalues --    0.88464   0.89439   0.90447   0.90754   0.90832
 Alpha virt. eigenvalues --    0.92186   0.94215   0.94490   0.94819   0.96268
 Alpha virt. eigenvalues --    0.96639   0.98146   0.98384   1.01055   1.01535
 Alpha virt. eigenvalues --    1.02666   1.03301   1.03613   1.05582   1.06275
 Alpha virt. eigenvalues --    1.07345   1.09370   1.11375   1.12022   1.14410
 Alpha virt. eigenvalues --    1.16630   1.17128   1.18043   1.19536   1.21576
 Alpha virt. eigenvalues --    1.23282   1.26499   1.26962   1.29639   1.31118
 Alpha virt. eigenvalues --    1.32903   1.33986   1.38070   1.39111   1.41002
 Alpha virt. eigenvalues --    1.41553   1.42076   1.45452   1.46249   1.46506
 Alpha virt. eigenvalues --    1.48529   1.50100   1.51224   1.51807   1.54101
 Alpha virt. eigenvalues --    1.55607   1.57948   1.59348   1.60862   1.62574
 Alpha virt. eigenvalues --    1.65076   1.66511   1.66987   1.68220   1.74201
 Alpha virt. eigenvalues --    1.75593   1.76817   1.78347   1.79871   1.81820
 Alpha virt. eigenvalues --    1.84991   1.88249   1.89672   1.90886   1.91669
 Alpha virt. eigenvalues --    1.92786   1.96933   1.98080   1.99429   2.04433
 Alpha virt. eigenvalues --    2.10259   2.12380   2.17354   2.18319   2.21378
 Alpha virt. eigenvalues --    2.23883   2.26394   2.27453   2.31740   2.34539
 Alpha virt. eigenvalues --    2.34753   2.46880   2.60295   2.65117   2.72260
 Alpha virt. eigenvalues --    2.77026   2.81241   2.88817   2.91132   2.97253
 Alpha virt. eigenvalues --    2.97423   3.01519   3.02291   3.04709   3.05951
 Alpha virt. eigenvalues --    3.09525   3.10272   3.11267   3.13229   3.15143
 Alpha virt. eigenvalues --    3.19329   3.20348   3.25170   3.29321   3.31237
 Alpha virt. eigenvalues --    3.35502   3.40284   3.45039   3.46982   3.51671
 Alpha virt. eigenvalues --    3.53063   3.53214   3.61456   3.65424   3.68689
 Alpha virt. eigenvalues --    3.73313   3.75844   3.76766   3.79318   3.81799
 Alpha virt. eigenvalues --    3.89444   3.92021   3.93848   3.94794   3.96861
 Alpha virt. eigenvalues --    3.97680   3.99331   4.04875   4.07200   4.07514
 Alpha virt. eigenvalues --    4.09185   4.11066   4.11625   4.12144   4.14073
 Alpha virt. eigenvalues --    4.15549   4.16382   4.18013   4.18622   4.19251
 Alpha virt. eigenvalues --    4.20444   4.21086   4.21315   4.22431   4.22712
 Alpha virt. eigenvalues --    4.24454   4.26541   4.28479   4.28655   4.30297
 Alpha virt. eigenvalues --    4.30725   4.32403   4.35504   4.38620   4.39603
 Alpha virt. eigenvalues --    4.42657   4.44636   4.46525   4.48503   4.49784
 Alpha virt. eigenvalues --    4.52227   4.54506   4.55561   4.56418   4.58809
 Alpha virt. eigenvalues --    4.60250   4.61093   4.62588   4.64009   4.64458
 Alpha virt. eigenvalues --    4.66205   4.66941   4.68343   4.71726   4.75183
 Alpha virt. eigenvalues --    4.75547   4.77311   4.81289   4.81775   4.83218
 Alpha virt. eigenvalues --    4.84529   4.86572   4.89815   4.92231   4.92347
 Alpha virt. eigenvalues --    4.98233   4.98845   5.01603   5.04871   5.07106
 Alpha virt. eigenvalues --    5.10016   5.13238   5.13780   5.22121   5.25003
 Alpha virt. eigenvalues --    5.37641   5.41544   5.43844   5.51998   5.52599
 Alpha virt. eigenvalues --    5.59041   5.68103   5.96547   6.02096   6.16460
 Alpha virt. eigenvalues --    6.25255   6.33818   6.38765   6.40840   6.47416
 Alpha virt. eigenvalues --    6.57399   6.58589   6.58765   6.58780   6.58870
 Alpha virt. eigenvalues --    6.58930   6.59268   6.59307   6.59916   6.60124
 Alpha virt. eigenvalues --    6.60749   6.60972   6.63623   6.64281   6.64915
 Alpha virt. eigenvalues --    6.65248   6.67273   6.69935   6.74772   6.76873
 Alpha virt. eigenvalues --    6.77013   6.77593   6.79219   6.93128   6.94007
 Alpha virt. eigenvalues --    6.94871   7.00266   7.15372   7.16803   7.17043
 Alpha virt. eigenvalues --    7.20728   7.21262   7.22840   7.38038   7.39307
 Alpha virt. eigenvalues --    7.39882   7.40590   7.40601   7.42133   7.45953
 Alpha virt. eigenvalues --    7.46613   7.52793   7.52894   7.72635   8.01615
 Alpha virt. eigenvalues --    9.57556   9.60879   9.67785   9.70523   9.72130
 Alpha virt. eigenvalues --    9.89729  11.13674  11.62122  12.21179  12.45702
 Alpha virt. eigenvalues --   12.75456  13.22891  13.23088
          Condensed to atoms (all electrons):
               1          2          3          4          5          6
     1  C    4.379660   0.386085   0.465460   0.408983   0.244599  -0.051146
     2  F    0.386085   8.779549  -0.038636  -0.041514  -0.033511   0.000409
     3  F    0.465460  -0.038636   8.677890  -0.042434  -0.025069   0.000024
     4  F    0.408983  -0.041514  -0.042434   8.771239  -0.037793   0.000204
     5  C    0.244599  -0.033511  -0.025069  -0.037793   4.685637   0.736313
     6  O   -0.051146   0.000409   0.000024   0.000204   0.736313   7.624666
     7  C   -0.072746  -0.003105   0.001611   0.007540   0.216781  -0.052253
     8  C    0.001087   0.019271  -0.000012  -0.001720  -0.014389  -0.002069
     9  O    0.001576  -0.002822  -0.000000  -0.000010  -0.002077  -0.000016
    10  C    0.001261   0.002493   0.000011   0.000029   0.001060   0.001564
    11  F    0.000011  -0.000047   0.000000  -0.000000  -0.000012  -0.000000
    12  F    0.000028   0.000003  -0.000000  -0.000000  -0.001711  -0.000010
    13  F    0.002445   0.002077  -0.000046   0.000003   0.019315  -0.002824
    14  H    0.000486  -0.000232   0.000068   0.005691  -0.017412   0.001213
    15  H    0.002734  -0.000016  -0.000009   0.000053  -0.011575  -0.000638
               7          8          9         10         11         12
     1  C   -0.072746   0.001087   0.001576   0.001261   0.000011   0.000028
     2  F   -0.003105   0.019271  -0.002822   0.002493  -0.000047   0.000003
     3  F    0.001611  -0.000012  -0.000000   0.000011   0.000000  -0.000000
     4  F    0.007540  -0.001720  -0.000010   0.000029  -0.000000  -0.000000
     5  C    0.216781  -0.014389  -0.002077   0.001060  -0.000012  -0.001711
     6  O   -0.052253  -0.002069  -0.000016   0.001564  -0.000000  -0.000010
     7  C    5.542638   0.216793  -0.052264  -0.072700   0.001612   0.007497
     8  C    0.216793   4.685677   0.736303   0.244556  -0.025048  -0.037701
     9  O   -0.052264   0.736303   7.624692  -0.051126   0.000023   0.000198
    10  C   -0.072700   0.244556  -0.051126   4.379555   0.465314   0.409017
    11  F    0.001612  -0.025048   0.000023   0.465314   8.678066  -0.042450
    12  F    0.007497  -0.037701   0.000198   0.409017  -0.042450   8.771176
    13  F   -0.003087  -0.033584   0.000412   0.386208  -0.038639  -0.041511
    14  H    0.338734  -0.011544  -0.000639   0.002732  -0.000009   0.000053
    15  H    0.338758  -0.017432   0.001216   0.000512   0.000068   0.005678
              13         14         15
     1  C    0.002445   0.000486   0.002734
     2  F    0.002077  -0.000232  -0.000016
     3  F   -0.000046   0.000068  -0.000009
     4  F    0.000003   0.005691   0.000053
     5  C    0.019315  -0.017412  -0.011575
     6  O   -0.002824   0.001213  -0.000638
     7  C   -0.003087   0.338734   0.338758
     8  C   -0.033584  -0.011544  -0.017432
     9  O    0.000412  -0.000639   0.001216
    10  C    0.386208   0.002732   0.000512
    11  F   -0.038639  -0.000009   0.000068
    12  F   -0.041511   0.000053   0.005678
    13  F    8.779497  -0.000015  -0.000236
    14  H   -0.000015   0.530546  -0.022854
    15  H   -0.000236  -0.022854   0.530568
 Mulliken charges:
               1
     1  C    0.229479
     2  F   -0.070005
     3  F   -0.038856
     4  F   -0.070271
     5  C    0.239847
     6  O   -0.255437
     7  C   -0.415810
     8  C    0.239814
     9  O   -0.255464
    10  C    0.229515
    11  F   -0.038889
    12  F   -0.070265
    13  F   -0.070015
    14  H    0.173183
    15  H    0.173175
 Sum of Mulliken charges =  -0.00000
 Mulliken charges with hydrogens summed into heavy atoms:
               1
     1  C    0.229479
     2  F   -0.070005
     3  F   -0.038856
     4  F   -0.070271
     5  C    0.239847
     6  O   -0.255437
     7  C   -0.069452
     8  C    0.239814
     9  O   -0.255464
    10  C    0.229515
    11  F   -0.038889
    12  F   -0.070265
    13  F   -0.070015
 Electronic spatial extent (au):  <R**2>=           2062.5557
 Charge=             -0.0000 electrons
 Dipole moment (field-independent basis, Debye):
    X=              0.0001    Y=              0.0013    Z=              1.7312  Tot=              1.7312
 Quadrupole moment (field-independent basis, Debye-Ang):
   XX=            -70.8154   YY=            -75.9158   ZZ=            -63.5896
   XY=             -3.6047   XZ=              0.0009   YZ=              0.0048
 Traceless Quadrupole moment (field-independent basis, Debye-Ang):
   XX=             -0.7085   YY=             -5.8089   ZZ=              6.5174
   XY=             -3.6047   XZ=              0.0009   YZ=              0.0048
 Octapole moment (field-independent basis, Debye-Ang**2):
  XXX=             -0.0063  YYY=             -0.0195  ZZZ=            -10.8188  XYY=             -0.0143
  XXY=             -0.0116  XXZ=             -4.2510  XZZ=              0.0042  YZZ=              0.0048
  YYZ=            -12.3378  XYZ=             -1.1666
 Hexadecapole moment (field-independent basis, Debye-Ang**3):
 XXXX=          -1304.0459 YYYY=           -484.5146 ZZZZ=           -329.2813 XXXY=            -19.7809
 XXXZ=              0.0260 YYYX=            -42.5679 YYYZ=              0.0013 ZZZX=              0.0033
 ZZZY=             -0.0057 XXYY=           -303.8753 XXZZ=           -269.3307 YYZZ=           -132.9011
 XXYZ=             -0.0045 YYXZ=             -0.0108 ZZXY=             -9.4303
 N-N= 9.382916273482D+02 E-N=-4.104108439318D+03  KE= 9.358973805908D+02
 Calling FoFJK, ICntrl=      2127 FMM=F ISym2X=0 I1Cent= 0 IOpClX= 0 NMat=1 NMatS=1 NMatT=0.
 ***** Axes restored to original set *****
 -------------------------------------------------------------------
 Center     Atomic                   Forces (Hartrees/Bohr)
 Number     Number              X              Y              Z
 -------------------------------------------------------------------
      1        6          -0.011169521    0.000110787    0.005954712
      2        9           0.004213285    0.000959494    0.000615317
      3        9           0.002271325    0.003300484   -0.001659581
      4        9           0.001402128    0.001292812   -0.004133618
      5        6          -0.003545970   -0.014340303    0.003818318
      6        8          -0.003146586    0.010723757   -0.000214831
      7        6          -0.000009382   -0.000000054   -0.009290636
      8        6           0.003592606    0.014363331    0.003808448
      9        8           0.003124375   -0.010749541   -0.000214585
     10        6           0.011126341   -0.000128979    0.006005875
     11        9          -0.002274759   -0.003282900   -0.001680120
     12        9          -0.001396297   -0.001285397   -0.004131869
     13        9          -0.004191974   -0.000965491    0.000578629
     14        1           0.001045330   -0.000051806    0.000269858
     15        1          -0.001040902    0.000053806    0.000274084
 -------------------------------------------------------------------
 Cartesian Forces:  Max     0.014363331 RMS     0.005254518

 GradGradGradGradGradGradGradGradGradGradGradGradGradGradGradGradGradGrad
 Berny optimization.
 FormGI is forming the generalized inverse of G from B-inverse, IUseBI=4.
 Internal  Forces:  Max     0.012313908 RMS     0.004779266
 Search for a local minimum.
 Step number   1 out of a maximum of   72
 All quantities printed in internal units (Hartrees-Bohrs-Radians)
 Mixed Optimization -- RFO/linear search
 Second derivative matrix not updated -- first step.
 ITU=  0
     Eigenvalues ---    0.00230   0.00230   0.00414   0.00414   0.00572
     Eigenvalues ---    0.00572   0.04870   0.06476   0.10018   0.10426
     Eigenvalues ---    0.10426   0.10972   0.10972   0.13311   0.22142
     Eigenvalues ---    0.24966   0.24967   0.25000   0.25000   0.25000
     Eigenvalues ---    0.25000   0.25000   0.25000   0.25000   0.25000
     Eigenvalues ---    0.26729   0.26730   0.30886   0.30887   0.34277
     Eigenvalues ---    0.34277   0.56854   0.56858   0.57060   0.57069
     Eigenvalues ---    0.61150   0.61156   1.10822   1.10826
 RFO step:  Lambda=-5.46630948D-03 EMin= 2.30000000D-03
 Linear search not attempted -- first point.
 Iteration  1 RMS(Cart)=  0.14457407 RMS(Int)=  0.00496505
 Iteration  2 RMS(Cart)=  0.00611449 RMS(Int)=  0.00044604
 Iteration  3 RMS(Cart)=  0.00002238 RMS(Int)=  0.00044587
 Iteration  4 RMS(Cart)=  0.00000000 RMS(Int)=  0.00044587
 Variable       Old X    -DE/DX   Delta X   Delta X   Delta X     New X
                                 (Linear)    (Quad)   (Total)
    R1        2.53338   0.00230   0.00000   0.00400   0.00400   2.53738
    R2        2.50037  -0.00074   0.00000  -0.00119  -0.00119   2.49917
    R3        2.53520   0.00076   0.00000   0.00132   0.00132   2.53652
    R4        2.95003  -0.00117   0.00000  -0.00429  -0.00429   2.94574
    R5        2.24593   0.01109   0.00000   0.00996   0.00996   2.25589
    R6        2.86230   0.01008   0.00000   0.03206   0.03206   2.89436
    R7        2.86230   0.01007   0.00000   0.03204   0.03204   2.89434
    R8        2.06865  -0.00063   0.00000  -0.00182  -0.00182   2.06683
    R9        2.06865  -0.00063   0.00000  -0.00182  -0.00182   2.06683
   R10        2.24592   0.01111   0.00000   0.00998   0.00998   2.25590
   R11        2.95005  -0.00118   0.00000  -0.00431  -0.00431   2.94574
   R12        2.50041  -0.00075   0.00000  -0.00122  -0.00122   2.49919
   R13        2.53517   0.00076   0.00000   0.00133   0.00133   2.53650
   R14        2.53345   0.00226   0.00000   0.00393   0.00393   2.53738
    A1        1.88923   0.00437   0.00000   0.01462   0.01440   1.90363
    A2        1.86563   0.00534   0.00000   0.02313   0.02300   1.88864
    A3        1.93686  -0.00394   0.00000  -0.01571  -0.01589   1.92097
    A4        1.88647   0.00580   0.00000   0.02313   0.02294   1.90940
    A5        1.96304  -0.00517   0.00000  -0.02135  -0.02157   1.94147
    A6        1.91927  -0.00550   0.00000  -0.02015  -0.02031   1.89896
    A7        2.12482  -0.00744   0.00000  -0.03036  -0.03174   2.09308
    A8        1.95640   0.01231   0.00000   0.04693   0.04553   2.00193
    A9        2.20106  -0.00491   0.00000  -0.02053  -0.02196   2.17911
   A10        1.98564   0.01113   0.00000   0.05271   0.05264   2.03827
   A11        1.89642  -0.00249   0.00000  -0.00718  -0.00725   1.88917
   A12        1.88261  -0.00362   0.00000  -0.01518  -0.01533   1.86728
   A13        1.88253  -0.00362   0.00000  -0.01514  -0.01529   1.86724
   A14        1.89654  -0.00249   0.00000  -0.00725  -0.00731   1.88923
   A15        1.91991   0.00102   0.00000  -0.00906  -0.00930   1.91061
   A16        2.20106  -0.00491   0.00000  -0.02053  -0.02193   2.17913
   A17        1.95649   0.01229   0.00000   0.04684   0.04548   2.00196
   A18        2.12471  -0.00742   0.00000  -0.03028  -0.03163   2.09308
   A19        1.96298  -0.00516   0.00000  -0.02130  -0.02152   1.94147
   A20        1.91912  -0.00549   0.00000  -0.02015  -0.02032   1.89881
   A21        1.93703  -0.00395   0.00000  -0.01571  -0.01588   1.92114
   A22        1.88652   0.00579   0.00000   0.02306   0.02286   1.90939
   A23        1.88917   0.00438   0.00000   0.01470   0.01448   1.90365
   A24        1.86567   0.00533   0.00000   0.02306   0.02293   1.88860
    D1       -2.21587   0.00027   0.00000  -0.01664  -0.01656  -2.23243
    D2        0.96882   0.00116   0.00000   0.07791   0.07775   1.04658
    D3       -0.09655  -0.00055   0.00000  -0.02407  -0.02395  -0.12050
    D4        3.08815   0.00033   0.00000   0.07047   0.07037  -3.12467
    D5        2.00681  -0.00044   0.00000  -0.02288  -0.02274   1.98408
    D6       -1.09168   0.00045   0.00000   0.07167   0.07158  -1.02010
    D7       -1.05822  -0.00063   0.00000  -0.07653  -0.07665  -1.13488
    D8        1.03897   0.00022   0.00000  -0.06675  -0.06680   0.97217
    D9        3.11975  -0.00200   0.00000  -0.09018  -0.09016   3.02959
   D10        2.12874   0.00035   0.00000   0.02318   0.02316   2.15190
   D11       -2.05725   0.00120   0.00000   0.03296   0.03301  -2.02424
   D12        0.02352  -0.00102   0.00000   0.00953   0.00965   0.03318
   D13        2.12788   0.00035   0.00000   0.02263   0.02260   2.15048
   D14       -1.05960  -0.00062   0.00000  -0.07607  -0.07620  -1.13580
   D15        0.02288  -0.00103   0.00000   0.00887   0.00900   0.03187
   D16        3.11858  -0.00200   0.00000  -0.08983  -0.08980   3.02877
   D17       -2.05792   0.00120   0.00000   0.03232   0.03237  -2.02555
   D18        1.03778   0.00023   0.00000  -0.06638  -0.06643   0.97135
   D19        3.08591   0.00034   0.00000   0.07044   0.07033  -3.12694
   D20       -1.09398   0.00045   0.00000   0.07158   0.07149  -1.02248
   D21        0.96659   0.00115   0.00000   0.07773   0.07758   1.04417
   D22       -0.09927  -0.00054   0.00000  -0.02315  -0.02302  -0.12230
   D23        2.00402  -0.00043   0.00000  -0.02201  -0.02187   1.98216
   D24       -2.21860   0.00027   0.00000  -0.01585  -0.01578  -2.23437
         Item               Value     Threshold  Converged?
 Maximum Force            0.012314     0.000450     NO 
 RMS     Force            0.004779     0.000300     NO 
 Maximum Displacement     0.404363     0.001800     NO 
 RMS     Displacement     0.144480     0.001200     NO 
 Predicted change in Energy=-2.981260D-03
 GradGradGradGradGradGradGradGradGradGradGradGradGradGradGradGradGradGrad

                          Input orientation:                          
 ---------------------------------------------------------------------
 Center     Atomic      Atomic             Coordinates (Angstroms)
 Number     Number       Type             X           Y           Z
 ---------------------------------------------------------------------
      1          6           0       -2.003260   -0.161114    0.214039
      2          9           0       -1.280693   -0.862349    1.102338
      3          9           0       -2.908937    0.552925    0.861280
      4          9           0       -2.620366   -1.028930   -0.603126
      5          6           0       -1.067233    0.750691   -0.635893
      6          8           0       -1.302062    1.916875   -0.735643
      7          6           0       -0.000039    0.000901   -1.438885
      8          6           0        1.066837   -0.749889   -0.636426
      9          8           0        1.300791   -1.916221   -0.736539
     10          6           0        2.003388    0.160903    0.214010
     11          9           0        2.907008   -0.554248    0.862912
     12          9           0        2.623042    1.026856   -0.603185
     13          9           0        1.281112    0.864285    1.100848
     14          1           0       -0.502552   -0.736871   -2.070862
     15          1           0        0.502669    0.739406   -2.069846
 ---------------------------------------------------------------------
                    Distance matrix (angstroms):
                    1          2          3          4          5
     1  C    0.000000
     2  F    1.342725   0.000000
     3  F    1.322506   2.170780   0.000000
     4  F    1.342268   2.175105   2.174862   0.000000
     5  C    1.558820   2.380947   2.381703   2.362275   0.000000
     6  O    2.389898   3.332074   2.644347   3.230055   1.193768
     7  C    2.602172   2.973733   3.749290   2.936862   1.531628
     8  C    3.239667   2.923499   4.443785   3.697897   2.608830
     9  O    3.860149   3.340086   5.135320   4.022506   3.567924
    10  C    4.019567   3.552655   4.970269   4.843812   3.240200
    11  F    4.968533   4.205840   5.920392   5.738157   4.443407
    12  F    4.845803   4.660156   5.742130   5.632015   3.700739
    13  F    3.553164   3.089355   4.208426   4.659327   2.922995
    14  H    2.793634   3.269625   4.006459   2.593199   2.142624
    15  H    3.508098   3.976023   4.501704   3.877065   2.126251
                    6          7          8          9         10
     6  O    0.000000
     7  C    2.420903   0.000000
     8  C    3.568355   1.531617   0.000000
     9  O    4.633300   2.420909   1.193770   0.000000
    10  C    3.861512   2.602188   1.558817   2.389901   0.000000
    11  F    5.135961   3.749317   2.381705   2.644455   1.322514
    12  F    4.026925   2.937948   2.362140   3.229216   1.342257
    13  F    3.339676   2.972714   2.381091   3.332805   1.342725
    14  H    3.076425   1.093719   2.126207   2.534428   3.508043
    15  H    2.534480   1.093718   2.142657   3.076859   2.793353
                   11         12         13         14         15
    11  F    0.000000
    12  F    2.174848   0.000000
    13  F    2.170803   2.175071   0.000000
    14  H    4.501719   3.877389   3.975538   0.000000
    15  H    4.006925   2.594168   3.267242   1.786019   0.000000
 Stoichiometry    C5H2F6O2
 Framework group  C1[X(C5H2F6O2)]
 Deg. of freedom    39
 Full point group                 C1      NOp   1
 Largest Abelian subgroup         C1      NOp   1
 Largest concise Abelian subgroup C1      NOp   1
                         Standard orientation:                         
 ---------------------------------------------------------------------
 Center     Atomic      Atomic             Coordinates (Angstroms)
 Number     Number       Type             X           Y           Z
 ---------------------------------------------------------------------
      1          6           0        1.999854   -0.198864   -0.264308
      2          9           0        1.264204   -0.886360   -1.152608
      3          9           0        2.918824    0.497984   -0.911549
      4          9           0        2.600500   -1.078153    0.552857
      5          6           0        1.081173    0.730415    0.585623
      6          8           0        1.337933    1.891968    0.685374
      7          6           0        0.000042    0.000865    1.388615
      8          6           0       -1.080791   -0.729690    0.586157
      9          8           0       -1.336678   -1.891407    0.686269
     10          6           0       -2.000015    0.198586   -0.264279
     11          9           0       -2.916949   -0.499413   -0.913181
     12          9           0       -2.603244    1.076061    0.552915
     13          9           0       -1.264615    0.888235   -1.151118
     14          1           0        0.488565   -0.746244    2.020592
     15          1           0       -0.488663    0.748711    2.019577
 ---------------------------------------------------------------------
 Rotational constants (GHZ):           1.3941351           0.5194099           0.4878179
 Standard basis: GTBas3 (6D, 7F)
 There are   413 symmetry adapted cartesian basis functions of A   symmetry.
 There are   374 symmetry adapted basis functions of A   symmetry.
   374 basis functions,   586 primitive gaussians,   413 cartesian basis functions
    51 alpha electrons       51 beta electrons
       nuclear repulsion energy       919.7560745576 Hartrees.
 NAtoms=   15 NActive=   15 NUniq=   15 SFac= 1.00D+00 NAtFMM=   60 NAOKFM=F Big=F
 Integral buffers will be    131072 words long.
 Raffenetti 2 integral format.
 Two-electron integral symmetry is turned on.
 One-electron integrals computed using PRISM.
 NBasis=   374 RedAO= T EigKep=  5.87D-04  NBF=   374
 NBsUse=   374 1.00D-06 EigRej= -1.00D+00 NBFU=   374
 Initial guess from the checkpoint file:  "/home/artemiy/opt/gaussian/scr/Gau-1820.chk"
 B after Tr=     0.000000   -0.000000    0.000000
         Rot=    0.999991    0.000004    0.000000    0.004295 Ang=   0.49 deg.
 ExpMin= 1.61D-01 ExpMax= 7.00D+03 ExpMxC= 1.05D+03 IAcc=2 IRadAn=         4 AccDes= 0.00D+00
 Harris functional with IExCor=  402 and IRadAn=       4 diagonalized for initial guess.
 HarFok:  IExCor=  402 AccDes= 0.00D+00 IRadAn=         4 IDoV= 1 UseB2=F ITyADJ=14
 ICtDFT=  3500011 ScaDFX=  1.000000  1.000000  1.000000  1.000000
 FoFCou: FMM=F IPFlag=           0 FMFlag=      100000 FMFlg1=           0
         NFxFlg=           0 DoJE=T BraDBF=F KetDBF=T FulRan=T
         wScrn=  0.000000 ICntrl=       500 IOpCl=  0 I1Cent=   200000004 NGrid=           0
         NMat0=    1 NMatS0=      1 NMatT0=    0 NMatD0=    1 NMtDS0=    0 NMtDT0=    0
 Petite list used in FoFCou.
 Requested convergence on RMS density matrix=1.00D-08 within 128 cycles.
 Requested convergence on MAX density matrix=1.00D-06.
 Requested convergence on             energy=1.00D-06.
 No special actions if energy rises.
 Integral accuracy reduced to 1.0D-05 until final iterations.
 Initial convergence to 1.0D-05 achieved.  Increase integral accuracy.
 SCF Done:  E(RB3LYP) =  -941.260539908     A.U. after   13 cycles
            NFock= 13  Conv=0.66D-08     -V/T= 2.0059
 Calling FoFJK, ICntrl=      2127 FMM=F ISym2X=0 I1Cent= 0 IOpClX= 0 NMat=1 NMatS=1 NMatT=0.
 ***** Axes restored to original set *****
 -------------------------------------------------------------------
 Center     Atomic                   Forces (Hartrees/Bohr)
 Number     Number              X              Y              Z
 -------------------------------------------------------------------
      1        6           0.002826612    0.003263351    0.001088194
      2        9          -0.000082295   -0.000196828   -0.001012675
      3        9           0.001123034   -0.002683563   -0.001291450
      4        9           0.000189603    0.000820217    0.002446800
      5        6          -0.004764027   -0.008141240   -0.005515004
      6        8           0.002694673    0.005264739    0.001690843
      7        6           0.000024366    0.000003408    0.003514787
      8        6           0.004716930    0.008129720   -0.005454632
      9        8          -0.002681565   -0.005261678    0.001676566
     10        6          -0.002819365   -0.003263355    0.001079347
     11        9          -0.001121644    0.002686531   -0.001293682
     12        9          -0.000187103   -0.000802422    0.002434905
     13        9           0.000085163    0.000175976   -0.001014672
     14        1           0.000194765   -0.000509974    0.000825945
     15        1          -0.000199148    0.000515119    0.000824727
 -------------------------------------------------------------------
 Cartesian Forces:  Max     0.008141240 RMS     0.002991241

 GradGradGradGradGradGradGradGradGradGradGradGradGradGradGradGradGradGrad
 Berny optimization.
 Using GEDIIS/GDIIS optimizer.
 FormGI is forming the generalized inverse of G from B-inverse, IUseBI=4.
 Internal  Forces:  Max     0.005627328 RMS     0.002134348
 Search for a local minimum.
 Step number   2 out of a maximum of   72
 All quantities printed in internal units (Hartrees-Bohrs-Radians)
 Mixed Optimization -- RFO/linear search
 Update second derivatives using D2CorX and points    1    2
 DE= -6.80D-04 DEPred=-2.98D-03 R= 2.28D-01
 Trust test= 2.28D-01 RLast= 3.04D-01 DXMaxT set to 3.00D-01
 ITU=  0  0
 Use linear search instead of GDIIS.
     Eigenvalues ---    0.00230   0.00232   0.00455   0.00548   0.00572
     Eigenvalues ---    0.00866   0.04521   0.06507   0.10488   0.10816
     Eigenvalues ---    0.10818   0.11290   0.11319   0.13391   0.21341
     Eigenvalues ---    0.22822   0.24702   0.24801   0.25000   0.25000
     Eigenvalues ---    0.25000   0.25000   0.25000   0.25000   0.25818
     Eigenvalues ---    0.26729   0.27605   0.30886   0.31744   0.34277
     Eigenvalues ---    0.34278   0.56856   0.56943   0.57065   0.57165
     Eigenvalues ---    0.61153   0.61393   1.07344   1.10824
 RFO step:  Lambda=-4.47779531D-03 EMin= 2.29999698D-03
 Quartic linear search produced a step of -0.44301.
 Iteration  1 RMS(Cart)=  0.17777435 RMS(Int)=  0.01190996
 Iteration  2 RMS(Cart)=  0.01628159 RMS(Int)=  0.00282187
 Iteration  3 RMS(Cart)=  0.00011467 RMS(Int)=  0.00282089
 Iteration  4 RMS(Cart)=  0.00000014 RMS(Int)=  0.00282089
 Variable       Old X    -DE/DX   Delta X   Delta X   Delta X     New X
                                 (Linear)    (Quad)   (Total)
    R1        2.53738  -0.00061  -0.00177   0.00458   0.00281   2.54019
    R2        2.49917  -0.00285   0.00053  -0.00443  -0.00390   2.49527
    R3        2.53652  -0.00211  -0.00058  -0.00055  -0.00114   2.53538
    R4        2.94574  -0.00247   0.00190  -0.01115  -0.00925   2.93649
    R5        2.25589   0.00447  -0.00441   0.01561   0.01119   2.26709
    R6        2.89436  -0.00357  -0.01420   0.03445   0.02025   2.91461
    R7        2.89434  -0.00357  -0.01419   0.03443   0.02024   2.91457
    R8        2.06683  -0.00022   0.00081  -0.00276  -0.00195   2.06487
    R9        2.06683  -0.00022   0.00081  -0.00275  -0.00195   2.06488
   R10        2.25590   0.00447  -0.00442   0.01563   0.01121   2.26711
   R11        2.94574  -0.00247   0.00191  -0.01119  -0.00928   2.93646
   R12        2.49919  -0.00285   0.00054  -0.00447  -0.00393   2.49526
   R13        2.53650  -0.00209  -0.00059  -0.00052  -0.00111   2.53539
   R14        2.53738  -0.00062  -0.00174   0.00447   0.00273   2.54011
    A1        1.90363  -0.00018  -0.00638   0.01892   0.01252   1.91615
    A2        1.88864  -0.00117  -0.01019   0.02482   0.01458   1.90321
    A3        1.92097  -0.00114   0.00704  -0.02372  -0.01671   1.90425
    A4        1.90940  -0.00199  -0.01016   0.02498   0.01484   1.92425
    A5        1.94147   0.00219   0.00955  -0.02183  -0.01228   1.92919
    A6        1.89896   0.00218   0.00900  -0.02166  -0.01267   1.88628
    A7        2.09308   0.00272   0.01406  -0.02223  -0.01730   2.07578
    A8        2.00193  -0.00158  -0.02017   0.06697   0.03771   2.03964
    A9        2.17911  -0.00072   0.00973  -0.01749  -0.01686   2.16225
   A10        2.03827  -0.00563  -0.02332   0.04954   0.02627   2.06454
   A11        1.88917   0.00251   0.00321  -0.00236   0.00092   1.89009
   A12        1.86728   0.00036   0.00679  -0.02201  -0.01519   1.85209
   A13        1.86724   0.00037   0.00678  -0.02195  -0.01514   1.85210
   A14        1.88923   0.00252   0.00324  -0.00241   0.00090   1.89013
   A15        1.91061   0.00008   0.00412  -0.00250   0.00169   1.91229
   A16        2.17913  -0.00071   0.00971  -0.01754  -0.01683   2.16230
   A17        2.00196  -0.00159  -0.02015   0.06678   0.03763   2.03959
   A18        2.09308   0.00271   0.01401  -0.02219  -0.01722   2.07586
   A19        1.94147   0.00219   0.00953  -0.02177  -0.01224   1.92923
   A20        1.89881   0.00219   0.00900  -0.02164  -0.01265   1.88616
   A21        1.92114  -0.00116   0.00704  -0.02376  -0.01676   1.90438
   A22        1.90939  -0.00198  -0.01013   0.02492   0.01481   1.92420
   A23        1.90365  -0.00018  -0.00641   0.01900   0.01256   1.91621
   A24        1.88860  -0.00116  -0.01016   0.02477   0.01455   1.90316
    D1       -2.23243   0.00100   0.00734   0.08851   0.09581  -2.13662
    D2        1.04658  -0.00211  -0.03445  -0.11551  -0.14988   0.89669
    D3       -0.12050   0.00145   0.01061   0.08198   0.09255  -0.02794
    D4       -3.12467  -0.00166  -0.03117  -0.12204  -0.15314   3.00537
    D5        1.98408   0.00178   0.01007   0.08522   0.09520   2.07928
    D6       -1.02010  -0.00133  -0.03171  -0.11880  -0.15049  -1.17059
    D7       -1.13488   0.00292   0.03396   0.14467   0.17835  -0.95653
    D8        0.97217   0.00152   0.02959   0.14787   0.17725   1.14942
    D9        3.02959   0.00311   0.03994   0.13194   0.17165  -3.08194
   D10        2.15190  -0.00067  -0.01026  -0.07096  -0.08101   2.07089
   D11       -2.02424  -0.00207  -0.01462  -0.06775  -0.08211  -2.10635
   D12        0.03318  -0.00048  -0.00428  -0.08368  -0.08771  -0.05453
   D13        2.15048  -0.00066  -0.01001  -0.07044  -0.08025   2.07023
   D14       -1.13580   0.00291   0.03376   0.14418   0.17766  -0.95814
   D15        0.03187  -0.00047  -0.00399  -0.08327  -0.08700  -0.05513
   D16        3.02877   0.00310   0.03978   0.13135   0.17091  -3.08350
   D17       -2.02555  -0.00206  -0.01434  -0.06735  -0.08142  -2.10697
   D18        0.97135   0.00151   0.02943   0.14727   0.17649   1.14784
   D19       -3.12694  -0.00166  -0.03116  -0.12110  -0.15219   3.00406
   D20       -1.02248  -0.00132  -0.03167  -0.11788  -0.14953  -1.17202
   D21        1.04417  -0.00209  -0.03437  -0.11466  -0.14897   0.89520
   D22       -0.12230   0.00144   0.01020   0.08196   0.09213  -0.03017
   D23        1.98216   0.00177   0.00969   0.08518   0.09479   2.07694
   D24       -2.23437   0.00100   0.00699   0.08840   0.09535  -2.13902
         Item               Value     Threshold  Converged?
 Maximum Force            0.005627     0.000450     NO 
 RMS     Force            0.002134     0.000300     NO 
 Maximum Displacement     0.514341     0.001800     NO 
 RMS     Displacement     0.179850     0.001200     NO 
 Predicted change in Energy=-2.932843D-03
 GradGradGradGradGradGradGradGradGradGradGradGradGradGradGradGradGradGrad

                          Input orientation:                          
 ---------------------------------------------------------------------
 Center     Atomic      Atomic             Coordinates (Angstroms)
 Number     Number       Type             X           Y           Z
 ---------------------------------------------------------------------
      1          6           0       -1.889413   -0.132909    0.278906
      2          9           0       -1.008516   -0.749426    1.085645
      3          9           0       -2.691324    0.633404    0.995335
      4          9           0       -2.600312   -1.059048   -0.382121
      5          6           0       -1.114042    0.716341   -0.766206
      6          8           0       -1.330429    1.894501   -0.832347
      7          6           0       -0.000007    0.000859   -1.557306
      8          6           0        1.113407   -0.715723   -0.766365
      9          8           0        1.329481   -1.893899   -0.833462
     10          6           0        1.889409    0.132682    0.278935
     11          9           0        2.689505   -0.634612    0.996329
     12          9           0        2.602413    1.057184   -0.382128
     13          9           0        1.009097    0.751268    1.084661
     14          1           0       -0.462947   -0.761846   -2.188121
     15          1           0        0.463381    0.764443   -2.186734
 ---------------------------------------------------------------------
                    Distance matrix (angstroms):
                    1          2          3          4          5
     1  C    0.000000
     2  F    1.344210   0.000000
     3  F    1.320442   2.179958   0.000000
     4  F    1.341667   2.187240   2.184047   0.000000
     5  C    1.553925   2.364098   2.365951   2.347024   0.000000
     6  O    2.378600   3.282175   2.604385   3.246345   1.199692
     7  C    2.638072   2.926637   3.762881   3.044019   1.542345
     8  C    3.232521   2.816670   4.404510   3.749297   2.648082
     9  O    3.834022   3.234040   5.089070   4.042767   3.576126
    10  C    3.788144   3.134783   4.663375   4.691995   3.233218
    11  F    4.661855   3.700881   5.528217   5.482923   4.404381
    12  F    4.693590   4.296161   5.486406   5.616653   3.751764
    13  F    3.135661   2.514527   3.703375   4.296107   2.816851
    14  H    2.918320   3.318936   4.128774   2.813947   2.151930
    15  H    3.524239   3.894450   4.482733   3.995993   2.123317
                    6          7          8          9         10
     6  O    0.000000
     7  C    2.425174   0.000000
     8  C    3.576306   1.542326   0.000000
     9  O    4.628941   2.425200   1.199703   0.000000
    10  C    3.834881   2.638002   1.553905   2.378650   0.000000
    11  F    5.089238   3.762758   2.365957   2.604535   1.320434
    12  F    4.046115   3.044578   2.346908   3.245450   1.341672
    13  F    3.233463   2.925986   2.364158   3.283101   1.344170
    14  H    3.105934   1.092685   2.123302   2.515838   3.524220
    15  H    2.515780   1.092688   2.151947   3.106164   2.917568
                   11         12         13         14         15
    11  F    0.000000
    12  F    2.184010   0.000000
    13  F    2.179963   2.187169   0.000000
    14  H    4.482729   3.995862   3.894551   0.000000
    15  H    4.128544   2.813852   3.316626   1.785397   0.000000
 Stoichiometry    C5H2F6O2
 Framework group  C1[X(C5H2F6O2)]
 Deg. of freedom    39
 Full point group                 C1      NOp   1
 Largest Abelian subgroup         C1      NOp   1
 Largest concise Abelian subgroup C1      NOp   1
                         Standard orientation:                         
 ---------------------------------------------------------------------
 Center     Atomic      Atomic             Coordinates (Angstroms)
 Number     Number       Type             X           Y           Z
 ---------------------------------------------------------------------
      1          6           0        1.879543   -0.233997   -0.301593
      2          9           0        0.966875   -0.802426   -1.108331
      3          9           0        2.721364    0.488245   -1.018021
      4          9           0        2.539794   -1.196898    0.359434
      5          6           0        1.150793    0.655580    0.743519
      6          8           0        1.430000    1.820453    0.809660
      7          6           0        0.000019    0.000822    1.534619
      8          6           0       -1.150193   -0.655070    0.743678
      9          8           0       -1.429088   -1.819974    0.810775
     10          6           0       -1.879619    0.233698   -0.301622
     11          9           0       -2.719680   -0.489620   -1.019016
     12          9           0       -2.542060    1.195078    0.359441
     13          9           0       -0.967425    0.804225   -1.107348
     14          1           0        0.421425   -0.785594    2.165434
     15          1           0       -0.421787    0.788138    2.164047
 ---------------------------------------------------------------------
 Rotational constants (GHZ):           1.3600106           0.5558309           0.5313173
 Standard basis: GTBas3 (6D, 7F)
 There are   413 symmetry adapted cartesian basis functions of A   symmetry.
 There are   374 symmetry adapted basis functions of A   symmetry.
   374 basis functions,   586 primitive gaussians,   413 cartesian basis functions
    51 alpha electrons       51 beta electrons
       nuclear repulsion energy       932.7366085520 Hartrees.
 NAtoms=   15 NActive=   15 NUniq=   15 SFac= 1.00D+00 NAtFMM=   60 NAOKFM=F Big=F
 Integral buffers will be    131072 words long.
 Raffenetti 2 integral format.
 Two-electron integral symmetry is turned on.
 One-electron integrals computed using PRISM.
 NBasis=   374 RedAO= T EigKep=  6.34D-04  NBF=   374
 NBsUse=   374 1.00D-06 EigRej= -1.00D+00 NBFU=   374
 Initial guess from the checkpoint file:  "/home/artemiy/opt/gaussian/scr/Gau-1820.chk"
 B after Tr=    -0.000000    0.000000   -0.000000
         Rot=    0.999869    0.000003   -0.000009    0.016205 Ang=   1.86 deg.
 ExpMin= 1.61D-01 ExpMax= 7.00D+03 ExpMxC= 1.05D+03 IAcc=2 IRadAn=         4 AccDes= 0.00D+00
 Harris functional with IExCor=  402 and IRadAn=       4 diagonalized for initial guess.
 HarFok:  IExCor=  402 AccDes= 0.00D+00 IRadAn=         4 IDoV= 1 UseB2=F ITyADJ=14
 ICtDFT=  3500011 ScaDFX=  1.000000  1.000000  1.000000  1.000000
 FoFCou: FMM=F IPFlag=           0 FMFlag=      100000 FMFlg1=           0
         NFxFlg=           0 DoJE=T BraDBF=F KetDBF=T FulRan=T
         wScrn=  0.000000 ICntrl=       500 IOpCl=  0 I1Cent=   200000004 NGrid=           0
         NMat0=    1 NMatS0=      1 NMatT0=    0 NMatD0=    1 NMtDS0=    0 NMtDT0=    0
 Petite list used in FoFCou.
 Requested convergence on RMS density matrix=1.00D-08 within 128 cycles.
 Requested convergence on MAX density matrix=1.00D-06.
 Requested convergence on             energy=1.00D-06.
 No special actions if energy rises.
 Integral accuracy reduced to 1.0D-05 until final iterations.
 Initial convergence to 1.0D-05 achieved.  Increase integral accuracy.
 SCF Done:  E(RB3LYP) =  -941.256509409     A.U. after   13 cycles
            NFock= 13  Conv=0.63D-08     -V/T= 2.0059
 Calling FoFJK, ICntrl=      2127 FMM=F ISym2X=0 I1Cent= 0 IOpClX= 0 NMat=1 NMatS=1 NMatT=0.
 ***** Axes restored to original set *****
 -------------------------------------------------------------------
 Center     Atomic                   Forces (Hartrees/Bohr)
 Number     Number              X              Y              Z
 -------------------------------------------------------------------
      1        6           0.003912838    0.002709420   -0.011548437
      2        9          -0.010504007   -0.003961613   -0.000590061
      3        9           0.000053816   -0.006052514    0.000686470
      4        9          -0.001377761   -0.001940939    0.006343820
      5        6           0.017218990    0.008541244    0.014814697
      6        8          -0.001529709   -0.004554669   -0.007053815
      7        6          -0.000018094   -0.000008500   -0.003349258
      8        6          -0.017168081   -0.008545440    0.014738842
      9        8           0.001507193    0.004577524   -0.007019583
     10        6          -0.003929586   -0.002701063   -0.011533916
     11        9          -0.000042499    0.006042270    0.000688686
     12        9           0.001382590    0.001944240    0.006329206
     13        9           0.010493447    0.003951873   -0.000568844
     14        1           0.001212629   -0.001327223   -0.000971173
     15        1          -0.001211764    0.001325390   -0.000966634
 -------------------------------------------------------------------
 Cartesian Forces:  Max     0.017218990 RMS     0.006780339

 GradGradGradGradGradGradGradGradGradGradGradGradGradGradGradGradGradGrad
 Berny optimization.
 Using GEDIIS/GDIIS optimizer.
 FormGI is forming the generalized inverse of G from B-inverse, IUseBI=4.
 Internal  Forces:  Max     0.014259613 RMS     0.005705508
 Search for a local minimum.
 Step number   3 out of a maximum of   72
 All quantities printed in internal units (Hartrees-Bohrs-Radians)
 Mixed Optimization -- RFO/linear search
 Update second derivatives using D2CorX and points    1    3    2
 DE=  4.03D-03 DEPred=-2.93D-03 R=-1.37D+00
 Trust test=-1.37D+00 RLast= 6.52D-01 DXMaxT set to 1.50D-01
 ITU= -1  0  0
 Use linear search instead of GDIIS.
     Eigenvalues ---    0.00220   0.00230   0.00437   0.00516   0.00572
     Eigenvalues ---    0.04353   0.04365   0.06441   0.10706   0.11073
     Eigenvalues ---    0.11170   0.11527   0.11537   0.13734   0.20716
     Eigenvalues ---    0.22831   0.24830   0.24891   0.24999   0.25000
     Eigenvalues ---    0.25000   0.25000   0.25000   0.25041   0.26465
     Eigenvalues ---    0.26729   0.30351   0.30704   0.30886   0.34277
     Eigenvalues ---    0.34290   0.56815   0.56856   0.57065   0.57290
     Eigenvalues ---    0.60880   0.61153   1.06916   1.10824
 RFO step:  Lambda=-2.54076267D-03 EMin= 2.19929193D-03
 Quartic linear search produced a step of -0.67410.
 Iteration  1 RMS(Cart)=  0.18263218 RMS(Int)=  0.01263179
 Iteration  2 RMS(Cart)=  0.01603912 RMS(Int)=  0.00171425
 Iteration  3 RMS(Cart)=  0.00010046 RMS(Int)=  0.00171299
 Iteration  4 RMS(Cart)=  0.00000004 RMS(Int)=  0.00171299
 Variable       Old X    -DE/DX   Delta X   Delta X   Delta X     New X
                                 (Linear)    (Quad)   (Total)
    R1        2.54019  -0.00542  -0.00189  -0.00309  -0.00498   2.53520
    R2        2.49527  -0.00317   0.00263  -0.00510  -0.00247   2.49281
    R3        2.53538  -0.00106   0.00077  -0.00303  -0.00227   2.53312
    R4        2.93649   0.00556   0.00623  -0.00089   0.00534   2.94183
    R5        2.26709  -0.00381  -0.00755   0.00327  -0.00428   2.26281
    R6        2.91461  -0.00669  -0.01365  -0.01023  -0.02388   2.89073
    R7        2.91457  -0.00669  -0.01364  -0.01023  -0.02387   2.89070
    R8        2.06487   0.00097   0.00132   0.00014   0.00145   2.06633
    R9        2.06488   0.00097   0.00131   0.00014   0.00145   2.06633
   R10        2.26711  -0.00383  -0.00756   0.00327  -0.00429   2.26282
   R11        2.93646   0.00557   0.00626  -0.00091   0.00535   2.94180
   R12        2.49526  -0.00316   0.00265  -0.00510  -0.00245   2.49281
   R13        2.53539  -0.00104   0.00075  -0.00300  -0.00225   2.53314
   R14        2.54011  -0.00540  -0.00184  -0.00311  -0.00495   2.53517
    A1        1.91615  -0.00780  -0.00844  -0.00426  -0.01295   1.90320
    A2        1.90321  -0.01136  -0.00983  -0.01698  -0.02691   1.87631
    A3        1.90425   0.01426   0.01127   0.01218   0.02326   1.92752
    A4        1.92425  -0.00765  -0.01001  -0.01243  -0.02255   1.90170
    A5        1.92919   0.00523   0.00828   0.01100   0.01909   1.94828
    A6        1.88628   0.00756   0.00854   0.01056   0.01899   1.90528
    A7        2.07578   0.00546   0.01166   0.00631   0.02350   2.09928
    A8        2.03964  -0.00150  -0.02542  -0.00311  -0.02302   2.01662
    A9        2.16225  -0.00321   0.01136  -0.01230   0.00455   2.16680
   A10        2.06454  -0.00176  -0.01771  -0.01517  -0.03291   2.03163
   A11        1.89009  -0.00131  -0.00062   0.00454   0.00388   1.89397
   A12        1.85209   0.00245   0.01024   0.00032   0.01052   1.86262
   A13        1.85210   0.00245   0.01021   0.00035   0.01052   1.86262
   A14        1.89013  -0.00131  -0.00061   0.00457   0.00391   1.89405
   A15        1.91229  -0.00058  -0.00114   0.00683   0.00562   1.91792
   A16        2.16230  -0.00320   0.01134  -0.01220   0.00456   2.16686
   A17        2.03959  -0.00150  -0.02537  -0.00307  -0.02301   2.01659
   A18        2.07586   0.00545   0.01161   0.00638   0.02343   2.09930
   A19        1.92923   0.00522   0.00825   0.01100   0.01906   1.94828
   A20        1.88616   0.00755   0.00853   0.01057   0.01899   1.90515
   A21        1.90438   0.01426   0.01130   0.01212   0.02324   1.92762
   A22        1.92420  -0.00764  -0.00998  -0.01240  -0.02250   1.90170
   A23        1.91621  -0.00779  -0.00847  -0.00429  -0.01300   1.90321
   A24        1.90316  -0.01135  -0.00981  -0.01693  -0.02685   1.87631
    D1       -2.13662  -0.00588  -0.06458  -0.06022  -0.12512  -2.26174
    D2        0.89669   0.00127   0.10104  -0.14994  -0.04870   0.84799
    D3       -0.02794  -0.00309  -0.06239  -0.05077  -0.11337  -0.14131
    D4        3.00537   0.00406   0.10323  -0.14050  -0.03696   2.96841
    D5        2.07928  -0.00456  -0.06418  -0.05273  -0.11716   1.96212
    D6       -1.17059   0.00259   0.10144  -0.14246  -0.04075  -1.21134
    D7       -0.95653  -0.00878  -0.12022  -0.02737  -0.14728  -1.10381
    D8        1.14942  -0.00782  -0.11949  -0.03384  -0.15303   0.99639
    D9       -3.08194  -0.00786  -0.11571  -0.02345  -0.13886   3.06238
   D10        2.07089  -0.00065   0.05461  -0.12068  -0.06635   2.00453
   D11       -2.10635   0.00031   0.05535  -0.12714  -0.07211  -2.17846
   D12       -0.05453   0.00027   0.05912  -0.11676  -0.05793  -0.11246
   D13        2.07023  -0.00066   0.05410  -0.12011  -0.06630   2.00393
   D14       -0.95814  -0.00877  -0.11976  -0.02806  -0.14751  -1.10565
   D15       -0.05513   0.00026   0.05865  -0.11618  -0.05783  -0.11296
   D16       -3.08350  -0.00785  -0.11521  -0.02413  -0.13904   3.06064
   D17       -2.10697   0.00030   0.05489  -0.12660  -0.07202  -2.17900
   D18        1.14784  -0.00780  -0.11897  -0.03455  -0.15323   0.99461
   D19        3.00406   0.00405   0.10259  -0.13928  -0.03638   2.96768
   D20       -1.17202   0.00257   0.10080  -0.14120  -0.04013  -1.21215
   D21        0.89520   0.00126   0.10042  -0.14866  -0.04803   0.84717
   D22       -0.03017  -0.00308  -0.06211  -0.05075  -0.11307  -0.14323
   D23        2.07694  -0.00455  -0.06390  -0.05268  -0.11683   1.96012
   D24       -2.13902  -0.00587  -0.06428  -0.06013  -0.12472  -2.26375
         Item               Value     Threshold  Converged?
 Maximum Force            0.014260     0.000450     NO 
 RMS     Force            0.005706     0.000300     NO 
 Maximum Displacement     0.535355     0.001800     NO 
 RMS     Displacement     0.185678     0.001200     NO 
 Predicted change in Energy=-2.974912D-03
 GradGradGradGradGradGradGradGradGradGradGradGradGradGradGradGradGradGrad

                          Input orientation:                          
 ---------------------------------------------------------------------
 Center     Atomic      Atomic             Coordinates (Angstroms)
 Number     Number       Type             X           Y           Z
 ---------------------------------------------------------------------
      1          6           0       -1.974660   -0.201780    0.214901
      2          9           0       -1.210972   -1.032724    0.940248
      3          9           0       -2.737913    0.502054    1.028647
      4          9           0       -2.755677   -0.955386   -0.571828
      5          6           0       -1.086058    0.715568   -0.675231
      6          8           0       -1.251681    1.901487   -0.674328
      7          6           0        0.000020    0.000838   -1.481210
      8          6           0        1.085306   -0.714918   -0.675103
      9          8           0        1.250607   -1.900886   -0.675058
     10          6           0        1.974661    0.201628    0.215075
     11          9           0        2.736517   -0.502858    1.029567
     12          9           0        2.757137    0.953670   -0.571723
     13          9           0        1.211839    1.034064    0.939586
     14          1           0       -0.475955   -0.756651   -2.109938
     15          1           0        0.476535    0.759115   -2.108583
 ---------------------------------------------------------------------
                    Distance matrix (angstroms):
                    1          2          3          4          5
     1  C    0.000000
     2  F    1.341572   0.000000
     3  F    1.319136   2.166773   0.000000
     4  F    1.340467   2.162977   2.164710   0.000000
     5  C    1.556751   2.383674   2.382733   2.364405   0.000000
     6  O    2.395236   3.349344   2.658462   3.230206   1.197428
     7  C    2.610978   2.897967   3.747916   3.055357   1.529708
     8  C    3.227818   2.825465   4.358990   3.849889   2.600214
     9  O    3.752510   3.069575   4.958328   4.117637   3.507967
    10  C    3.969871   3.492529   4.791713   4.932950   3.228743
    11  F    4.790565   3.983893   5.565899   5.738767   4.359241
    12  F    4.933937   4.688038   5.741142   5.834005   3.851954
    13  F    3.493745   3.184592   3.986416   4.688653   2.826553
    14  H    2.821147   3.149619   4.068354   2.757247   2.144304
    15  H    3.511445   3.918384   4.498996   3.968416   2.120870
                    6          7          8          9         10
     6  O    0.000000
     7  C    2.414597   0.000000
     8  C    3.508146   1.529694   0.000000
     9  O    4.551866   2.414623   1.197432   0.000000
    10  C    3.753644   2.610921   1.556736   2.395236   0.000000
    11  F    4.958816   3.747817   2.382723   2.658601   1.319137
    12  F    4.120619   3.055609   2.364295   3.229366   1.340480
    13  F    3.070191   2.897640   2.383731   3.350002   1.341553
    14  H    3.119042   1.093454   2.120856   2.519756   3.511339
    15  H    2.519689   1.093456   2.144351   3.119261   2.820383
                   11         12         13         14         15
    11  F    0.000000
    12  F    2.164724   0.000000
    13  F    2.166765   2.162975   0.000000
    14  H    4.498987   3.967895   3.918534   0.000000
    15  H    4.067934   2.756980   3.147635   1.790192   0.000000
 Stoichiometry    C5H2F6O2
 Framework group  C1[X(C5H2F6O2)]
 Deg. of freedom    39
 Full point group                 C1      NOp   1
 Largest Abelian subgroup         C1      NOp   1
 Largest concise Abelian subgroup C1      NOp   1
                         Standard orientation:                         
 ---------------------------------------------------------------------
 Center     Atomic      Atomic             Coordinates (Angstroms)
 Number     Number       Type             X           Y           Z
 ---------------------------------------------------------------------
      1          6           0        1.976846   -0.178709   -0.256788
      2          9           0        1.222933   -1.018531   -0.982136
      3          9           0        2.731813    0.534006   -1.070535
      4          9           0        2.766627   -0.923127    0.529940
      5          6           0        1.077573    0.728180    0.633343
      6          8           0        1.229310    1.915954    0.632441
      7          6           0       -0.000069    0.000792    1.439323
      8          6           0       -1.076907   -0.727613    0.633215
      9          8           0       -1.228320   -1.915434    0.633170
     10          6           0       -1.976924    0.178465   -0.256963
     11          9           0       -2.730485   -0.534886   -1.071455
     12          9           0       -2.768144    0.921301    0.529835
     13          9           0       -1.223893    1.019769   -0.981473
     14          1           0        0.484736   -0.751077    2.068050
     15          1           0       -0.485422    0.753442    2.066695
 ---------------------------------------------------------------------
 Rotational constants (GHZ):           1.3931668           0.5320516           0.4972389
 Standard basis: GTBas3 (6D, 7F)
 There are   413 symmetry adapted cartesian basis functions of A   symmetry.
 There are   374 symmetry adapted basis functions of A   symmetry.
   374 basis functions,   586 primitive gaussians,   413 cartesian basis functions
    51 alpha electrons       51 beta electrons
       nuclear repulsion energy       924.1472666896 Hartrees.
 NAtoms=   15 NActive=   15 NUniq=   15 SFac= 1.00D+00 NAtFMM=   60 NAOKFM=F Big=F
 Integral buffers will be    131072 words long.
 Raffenetti 2 integral format.
 Two-electron integral symmetry is turned on.
 One-electron integrals computed using PRISM.
 NBasis=   374 RedAO= T EigKep=  5.90D-04  NBF=   374
 NBsUse=   374 1.00D-06 EigRej= -1.00D+00 NBFU=   374
 Lowest energy guess from the checkpoint file:  "/home/artemiy/opt/gaussian/scr/Gau-1820.chk"
 B after Tr=    -0.000000   -0.000000   -0.000000
         Rot=    0.999891    0.000013   -0.000013   -0.014756 Ang=   1.69 deg.
 B after Tr=    -0.000000   -0.000000    0.000000
         Rot=    0.999472    0.000004   -0.000005   -0.032503 Ang=   3.73 deg.
 Requested convergence on RMS density matrix=1.00D-08 within 128 cycles.
 Requested convergence on MAX density matrix=1.00D-06.
 Requested convergence on             energy=1.00D-06.
 No special actions if energy rises.
 Integral accuracy reduced to 1.0D-05 until final iterations.
 Initial convergence to 1.0D-05 achieved.  Increase integral accuracy.
 SCF Done:  E(RB3LYP) =  -941.260479424     A.U. after   12 cycles
            NFock= 12  Conv=0.63D-08     -V/T= 2.0059
 Calling FoFJK, ICntrl=      2127 FMM=F ISym2X=0 I1Cent= 0 IOpClX= 0 NMat=1 NMatS=1 NMatT=0.
 ***** Axes restored to original set *****
 -------------------------------------------------------------------
 Center     Atomic                   Forces (Hartrees/Bohr)
 Number     Number              X              Y              Z
 -------------------------------------------------------------------
      1        6          -0.002046256   -0.001538667   -0.003221571
      2        9           0.001786382    0.002074134    0.000376807
      3        9           0.000360523    0.000844207    0.000223323
      4        9          -0.000515456   -0.000339110   -0.001104092
      5        6           0.008347392    0.002837332    0.009022958
      6        8          -0.002739923   -0.002072313   -0.002470549
      7        6          -0.000026912   -0.000002554   -0.005132101
      8        6          -0.008262292   -0.002833699    0.008923084
      9        8           0.002709732    0.002078672   -0.002438048
     10        6           0.002017871    0.001532684   -0.003192238
     11        9          -0.000356047   -0.000844574    0.000222921
     12        9           0.000514766    0.000333846   -0.001102216
     13        9          -0.001791407   -0.002063553    0.000376362
     14        1           0.001154174   -0.000963445   -0.000244315
     15        1          -0.001152548    0.000957040   -0.000240325
 -------------------------------------------------------------------
 Cartesian Forces:  Max     0.009022958 RMS     0.003110184

 GradGradGradGradGradGradGradGradGradGradGradGradGradGradGradGradGradGrad
 Berny optimization.
 Using GEDIIS/GDIIS optimizer.
 FormGI is forming the generalized inverse of G from B-inverse, IUseBI=4.
 Internal  Forces:  Max     0.003707777 RMS     0.001619832
 Search for a local minimum.
 Step number   4 out of a maximum of   72
 All quantities printed in internal units (Hartrees-Bohrs-Radians)
 Mixed Optimization -- RFO/linear search
 Update second derivatives using D2CorX and points    1    4    2
 DE=  6.05D-05 DEPred=-2.97D-03 R=-2.03D-02
 Trust test=-2.03D-02 RLast= 6.05D-01 DXMaxT set to 7.50D-02
 ITU= -1 -1  0  0
 Use linear search instead of GDIIS.
 Energy rises -- skip Quadratic/GDIIS search.
[...]
    13  F   -0.007212  -0.021439  -0.001197   0.256895  -0.021626  -0.013709
    14  H    0.380631  -0.001792  -0.008890   0.006842  -0.000224  -0.000108
    15  H    0.380664  -0.026242   0.006836  -0.004464   0.000425  -0.001508
              13         14         15
     1  C   -0.002112  -0.004464   0.006843
     2  F   -0.006808  -0.000060   0.000191
     3  F    0.000604   0.000425  -0.000224
     4  F   -0.000215  -0.001506  -0.000109
     5  C    0.009047  -0.026233  -0.001801
     6  O    0.001741   0.006835  -0.008893
     7  C   -0.007212   0.380631   0.380664
     8  C   -0.021439  -0.001792  -0.026242
     9  O   -0.001197  -0.008890   0.006836
    10  C    0.256895   0.006842  -0.004464
    11  F   -0.021626  -0.000224   0.000425
    12  F   -0.013709  -0.000108  -0.001508
    13  F    9.076854   0.000191  -0.000062
    14  H    0.000191   0.412187  -0.019671
    15  H   -0.000062  -0.019671   0.412168
 Mulliken charges:
               1
     1  C    0.751618
     2  F   -0.270956
     3  F   -0.257829
     4  F   -0.276467
     5  C    0.439069
     6  O   -0.443470
     7  C   -0.395609
     8  C    0.439058
     9  O   -0.443466
    10  C    0.751632
    11  F   -0.257836
    12  F   -0.276471
    13  F   -0.270953
    14  H    0.255836
    15  H    0.255844
 Sum of Mulliken charges =  -0.00000
 Mulliken charges with hydrogens summed into heavy atoms:
               1
     1  C    0.751618
     2  F   -0.270956
     3  F   -0.257829
     4  F   -0.276467
     5  C    0.439069
     6  O   -0.443470
     7  C    0.116072
     8  C    0.439058
     9  O   -0.443466
    10  C    0.751632
    11  F   -0.257836
    12  F   -0.276471
    13  F   -0.270953
 Electronic spatial extent (au):  <R**2>=           2137.6961
 Charge=             -0.0000 electrons
 Dipole moment (field-independent basis, Debye):
    X=             -0.0003    Y=              0.0007    Z=              2.1119  Tot=              2.1119
 Quadrupole moment (field-independent basis, Debye-Ang):
   XX=            -74.8582   YY=            -79.7143   ZZ=            -65.4375
   XY=             -4.6122   XZ=              0.0003   YZ=              0.0027
 Traceless Quadrupole moment (field-independent basis, Debye-Ang):
   XX=             -1.5216   YY=             -6.3776   ZZ=              7.8992
   XY=             -4.6122   XZ=              0.0003   YZ=              0.0027
 Octapole moment (field-independent basis, Debye-Ang**2):
  XXX=             -0.0017  YYY=             -0.0090  ZZZ=             -8.5565  XYY=             -0.0039
  XXY=             -0.0052  XXZ=             -4.3511  XZZ=              0.0008  YZZ=              0.0031
  YYZ=            -13.4975  XYZ=             -1.7525
 Hexadecapole moment (field-independent basis, Debye-Ang**3):
 XXXX=          -1448.5221 YYYY=           -498.0740 ZZZZ=           -340.0214 XXXY=            -25.1898
 XXXZ=             -0.0153 YYYX=            -47.2148 YYYZ=              0.0047 ZZZX=             -0.0175
 ZZZY=              0.0019 XXYY=           -335.4767 XXZZ=           -294.2281 YYZZ=           -138.4350
 XXYZ=              0.0007 YYXZ=             -0.0101 ZZXY=            -11.5779
 N-N= 9.294937393109D+02 E-N=-4.085227247570D+03  KE= 9.364778094957D+02
 1\1\GINC-ARTEMIY-VIRTUALBOX\SP\RHF\GFHFB2\C5H2F6O2\ARTEMIY\23-Nov-2021
 \0\\#N Geom=AllCheck Guess=TCheck SCRF=Check HF/GFHFB2 SCF=Tight\\Titl
 e Card Required\\0,1\C,0,-1.9252517292,-0.1603354522,0.2361444448\F,0,
 -1.1337968035,-0.8595061334,1.0661447932\F,0,-2.7758404826,0.550868368
 4,0.9510786594\F,0,-2.6073939549,-1.0366937817,-0.5148970744\C,0,-1.05
 83595386,0.7403394178,-0.6864049253\O,0,-1.2712965213,1.9155798985,-0.
 7595607108\C,0,0.0000508323,0.0005696206,-1.5022417649\C,0,1.058201703
 5,-0.7397476514,-0.6865820352\O,0,1.2708766768,-1.915012692,-0.7601198
 473\C,0,1.9252059143,0.160419916,0.2363560357\F,0,2.775357824,-0.55123
 45144,0.9513614818\F,0,2.6078656032,1.0366482984,-0.5143774728\F,0,1.1
 338304191,0.8597546112,1.0662870237\H,0,-0.4904252137,-0.7488935908,-2
 .1294028102\H,0,0.4906798327,0.7504636736,-2.1287646591\\Version=ES64L
 -G16RevA.03\State=1-A\HF=-937.300613\RMSD=6.570e-09\Dipole=0.0001246,0
 .000273,-0.8308924\Quadrupole=-0.9965218,-4.8763385,5.8728603,3.354716
 ,0.00015,-0.002005\PG=C01 [X(C5H2F6O2)]\\@


 ERWIN WITH HIS PSI CAN DO
 CALCULATIONS QUITE A FEW.
 BUT ONE THING HAS NOT BEEN SEEN
 JUST WHAT DOES PSI REALLY MEAN.
 -- WALTER HUCKEL, TRANS. BY FELIX BLOCH
 Diagonal vibrational polarizability:
        0.0000000       0.0000000       0.0000000
 
 Temperature=              298.150000 Pressure=                      1.000000
 E(ZPE)=                     0.075180 E(Thermal)=                    0.087327
 E(QCISD(T))=             -938.945145 E(Empiric)=                   -0.263986
 E(CCSD(T))=                -0.263986 E(Empiric)=                   -0.071832
 DE(Plus)=                  -0.614036 DE(2DF)=                      -1.048118
 E(Delta-G3XP)=             -0.105207 DE(HF)=                     -940.973144
 G4(0 K)=                 -940.960997 G4 Energy=                  -940.960052
 G4 Enthalpy=             -941.014171 G4 Free Energy=    
 1\1\GINC-ARTEMIY-VIRTUALBOX\Mixed\G4\G4\C5H2F6O2\ARTEMIY\23-Nov-2021\0
 \\# g4 geom=gic\\Title Card Required\\0,1\C,0,-1.9252517292,-0.1603354
 522,0.2361444448\F,0,-1.1337968035,-0.8595061334,1.0661447932\F,0,-2.7
 758404826,0.5508683684,0.9510786594\F,0,-2.6073939549,-1.0366937817,-0
 .5148970744\C,0,-1.0583595386,0.7403394178,-0.6864049253\O,0,-1.271296
 5213,1.9155798985,-0.7595607108\C,0,0.0000508323,0.0005696206,-1.50224
 17649\C,0,1.0582017035,-0.7397476514,-0.6865820352\O,0,1.2708766768,-1
 .915012692,-0.7601198473\C,0,1.9252059143,0.160419916,0.2363560357\F,0
 ,2.775357824,-0.5512345144,0.9513614818\F,0,2.6078656032,1.0366482984,
 -0.5143774728\F,0,1.1338304191,0.8597546112,1.0662870237\H,0,-0.490425
 2137,-0.7488935908,-2.1294028102\H,0,0.4906798327,0.7504636736,-2.1287
 646591\\Version=ES64L-G16RevA.03\State=1-A\MP2/GTBas1=-938.8585055\MP4
 /GTBas1=-938.964481\CCSD(T)/G3Bas1=-938.9451449\MP2/GTBas2=-938.923968
 7\MP4/GTBas2=-939.0363131\MP2/GTBas3=-939.4352768\MP4/GTBas3=-939.5785
 166\HF/GTLargeXP=-937.1997\MP2/GTLargeXP=-940.5488582\HF/GFHFB1=-937.2
 829915\HF/GFHFB2=-937.300613\G4=-940.9731442\FreqCoord=-3.6381984891,-
 0.3029900927,0.4462483265,-2.1425654395,-1.6242311946,2.0147216684,-5.
 2455782776,1.0409903469,1.7972781892,-4.9272604736,-1.9590673224,-0.97
 3014453,-2.0000096693,1.3990387389,-1.2971173193,-2.4024022484,3.61992
 13778,-1.4353617184,0.000096059,0.0010764269,-2.8388255086,1.999711404
 2,-1.3979204624,-1.2974520087,2.4016088573,-3.6188495129,-1.4364183333
 ,3.6381119115,0.3031497062,0.4466481753,5.244666185,-1.0416822626,1.79
 7812646,4.9281517597,1.9589813715,-0.9720325483,2.1426289639,1.6247007
 495,2.014990445,-0.9267693385,-1.4152037831,-4.0239881201,0.9272504987
 ,1.4181708095,-4.0227821893\PG=C01 [X(C5H2F6O2)]\NImag=0\\0.55044601,-
 0.01311058,0.54968555,-0.06359173,0.00266859,0.53357114,-0.11261113,0.
 05100052,-0.05394007,0.18355578,0.04995173,-0.13898599,0.08556667,-0.0
 9783040,0.15881547,-0.05570707,0.07799899,-0.16874185,0.11516470,-0.09
 860998,0.19874337,-0.18802124,0.06597931,0.10013779,-0.04194213,0.0437
 2150,0.00160016,0.22699181,0.07674340,-0.12672922,-0.06594519,0.048649
 98,-0.02694904,-0.00338758,-0.12989668,0.18577675,0.09718403,-0.055367
 90,-0.15898337,-0.01200480,0.00708748,0.02361199,-0.12306933,0.1092003
 1,0.18249460,-0.14513357,-0.08339899,-0.04644063,-0.03044743,-0.008495
 20,-0.04467430,0.02364543,0.01422304,0.00984784,0.16094649,-0.08933481
 ,-0.17629379,-0.06044402,0.00181950,0.02501853,-0.00264421,0.00192507,
 -0.03688278,-0.04415455,0.10518325,0.21038704,-0.04221378,-0.05926859,
 -0.10878418,-0.05008581,-0.01464103,-0.03616099,-0.00207322,-0.0491788
 3,-0.03103330,0.09440939,0.12144223,0.17018703,-0.11450017,-0.03176418
 ,0.04585826,0.00388086,0.02741695,-0.02958593,-0.02014318,-0.00354140,
 0.02781213,-0.00549161,-0.01647646,0.00161139,0.38659046,-0.02462652,-
 0.06994688,0.02118635,-0.00110562,-0.01036628,0.02006521,0.02484067,-0
 .00072589,-0.02132310,-0.02185602,-0.01834965,0.00201525,-0.12110213,0
 .97624154,0.04332569,0.02861287,-0.11354798,0.00267770,0.01746711,-0.0
 1037868,0.02362461,0.00506759,-0.01379566,-0.02358689,-0.02793485,0.00
 624487,-0.10500375,-0.05879673,0.33681692,0.01754036,-0.00869473,0.003
 72205,0.00047226,-0.00674444,0.00708064,0.00288662,-0.00431441,-0.0031
 6726,-0.00222648,-0.00147168,-0.00116102,-0.10812654,0.12632333,0.0119
 7759,0.08793110,0.00659735,-0.04695746,0.00991891,-0.00027573,-0.00567
 390,0.00794766,-0.00210838,0.00563910,0.00027123,-0.00697299,-0.004769
 21,-0.00063190,0.12171715,-0.78447640,0.05517218,-0.14874046,0.8768295
 4,0.00058502,0.02069607,0.01419990,-0.00170180,0.00244458,-0.00440641,
 -0.00369742,0.00261951,0.00168819,0.00716763,0.00791029,-0.00024511,0.
 01289476,0.04956702,-0.08291705,-0.02489410,-0.05834267,0.05628889,-0.
 00261200,0.01661191,0.01301366,0.00044117,-0.00577742,0.00533270,-0.00
 357975,-0.00122906,0.00339013,0.00000064,-0.00092482,-0.00088408,-0.12
 368194,0.00041376,0.02443886,0.00473510,0.03299776,0.01426189,0.439966
 97,-0.00722893,0.00962826,0.01033528,-0.00070157,0.00122416,-0.0021244
 2,-0.00524376,-0.00035419,0.00460336,0.00214037,0.00092783,-0.00166795
 ,0.00767610,-0.07386660,-0.00958997,0.03904954,-0.04227971,-0.02071729
 ,0.09448452,0.55476915,0.01774015,-0.00668348,0.00161427,-0.00117827,-
 0.00106754,0.00083851,0.00212528,0.00046005,-0.00242248,0.00289075,0.0
 0316220,-0.00145615,0.04064019,-0.01866521,-0.11623904,0.00679102,-0.0
 0658176,0.01831398,0.00003932,0.00002075,0.46746024,-0.00363144,-0.001
 13106,0.00424739,-0.00073667,0.00041585,-0.00044105,0.00225067,-0.0001
 5670,-0.00214110,0.00110961,0.00103046,-0.00052865,-0.02034321,0.01934
 892,-0.00239814,0.00197864,-0.00698726,-0.00157073,-0.12368148,0.00770
 309,-0.04064005,0.38652567,-0.00123164,0.00980226,-0.00632144,0.002928
 02,-0.00466106,0.00274860,-0.00086777,-0.00148211,0.00187986,-0.001169
 56,-0.00270432,0.00119585,0.01934882,-0.02430995,-0.00399930,-0.000595
 11,0.00689242,-0.00010863,0.00042582,-0.07389112,0.01869677,-0.1210139
 6,0.97625827,0.00143759,-0.00701682,0.00490096,-0.00129487,0.00406321,
 -0.00593591,0.00104276,0.00100898,-0.00205580,-0.00000448,0.00047630,-
 0.00108296,0.00238902,0.00397091,0.02895462,0.00449959,-0.01177599,-0.
 00769034,-0.02443837,0.00962552,-0.11624284,0.10498379,0.05897731,0.33
 688228,0.00085009,-0.00016357,-0.00134579,-0.00087585,0.00031243,0.001
 27227,-0.00086692,0.00019049,0.00077351,-0.00031681,0.00002527,0.00033
 353,0.00197861,-0.00059256,-0.00449172,-0.00147116,0.00259912,0.002187
 23,0.00475949,0.03904107,-0.00677641,-0.10806653,0.12617732,-0.0119517
 0,0.08785408,-0.00007368,-0.00709218,0.00314406,-0.00162098,0.00341828
 ,-0.00212884,0.00075730,0.00113822,-0.00116539,0.00089856,0.00193022,-
 0.00027767,-0.00699467,0.00688482,0.01178053,0.00260343,-0.00619819,-0
 .00352559,0.03299148,-0.04230119,0.00656358,0.12157429,-0.78449320,-0.
 05539690,-0.14857408,0.87685374,-0.00085673,0.00239457,-0.00223990,0.0
 0195385,-0.00171033,0.00118689,-0.00019921,-0.00040370,0.00073826,0.00
 009746,-0.00016219,0.00049932,0.00157277,0.00011770,-0.00768468,-0.002
 18891,0.00352176,0.00257474,-0.01424497,0.02069877,0.01832014,-0.01286
 862,-0.04979122,-0.08295647,0.02485865,0.05860264,0.05633499,-0.008011
 86,0.00030820,-0.00289981,0.00363859,-0.00041403,0.00135029,0.00148664
 ,-0.00053549,-0.00032550,0.00176447,0.00125213,0.00121152,-0.00363089,
 -0.00122970,-0.00143456,0.00084996,-0.00007565,0.00085534,-0.00260673,
 -0.00721767,-0.01774219,-0.11450399,-0.02459867,-0.04334105,0.01754204
 ,0.00658472,-0.00058633,0.55041689,0.00030771,0.00270933,0.00185271,-0
 .00007632,-0.00146385,-0.00029390,0.00082673,-0.00082293,-0.00086135,-
 0.00018554,-0.00077152,-0.00068428,-0.00113028,0.00979279,0.00701870,-
 0.00016164,-0.00708839,-0.00239643,0.01661755,0.00962980,0.00669194,-0
 .03173440,-0.06991817,-0.02859273,-0.00870707,-0.04694578,-0.02071668,
 -0.01313593,0.54969155,0.00289856,-0.00185314,0.00563816,-0.00196408,0
 .00092042,-0.00304709,0.00080532,0.00012976,-0.00169842,-0.00051034,-0
 .00028093,-0.00158795,-0.00424865,0.00632446,0.00490206,0.00134644,-0.
 00314646,-0.00224033,-0.01301287,-0.01033130,0.00160761,-0.04587421,-0
 .02116470,-0.11357448,-0.00372650,-0.00993872,0.01418691,0.06359109,-0
 .00267429,0.53359783,0.00148589,0.00082710,-0.00080512,-0.00036752,-0.
 00048444,0.00036486,-0.00056993,-0.00001168,0.00048123,-0.00050338,-0.
 00043933,0.00013963,0.00225040,-0.00086695,-0.00104383,-0.00086689,0.0
 0075726,0.00019984,-0.00358064,-0.00524137,-0.00212768,-0.02012305,0.0
 2484868,-0.02362039,0.00288291,-0.00210955,0.00369659,-0.18792209,0.06
 600847,-0.10011028,0.22683498,-0.00053537,-0.00082364,-0.00012895,0.00
 014495,0.00042407,-0.00003336,-0.00001141,0.00017778,0.00004963,0.0001
 9977,0.00030642,0.00009451,-0.00015800,-0.00148032,-0.00100830,0.00019
 063,0.00113721,0.00040370,-0.00122690,-0.00035136,-0.00045902,-0.00352
 706,-0.00073579,-0.00505816,-0.00431328,0.00564164,-0.00261953,0.07676
 941,-0.12680504,0.06600554,-0.12990978,0.18591355,0.00032532,0.0008622
 7,-0.00169879,0.00014533,-0.00053973,0.00085857,-0.00048136,-0.0000500
 5,0.00063545,-0.00020991,-0.00019666,0.00044459,0.00214193,-0.00187936
 ,-0.00205717,-0.00077398,0.00116567,0.00073890,-0.00339208,-0.00460340
 ,-0.00242537,-0.02780686,0.02134141,-0.01380341,0.00316635,-0.00027159
 ,0.00168986,-0.09715442,0.05542516,-0.15900872,0.12301452,-0.10927682,
 0.18251289,0.00176516,-0.00018559,0.00051084,-0.00086012,0.00019306,-0
 .00032601,-0.00050377,0.00019977,0.00021003,-0.00042277,-0.00024767,-0
 .00022099,0.00110997,-0.00117064,0.00000436,-0.00031681,0.00089896,-0.
 00009720,0.00000156,0.00214095,-0.00289116,-0.00551388,-0.02186414,0.0
 2358925,-0.00222662,-0.00697182,-0.00717265,-0.14521873,-0.08343026,0.
 04643976,0.02365386,0.01419028,-0.00981548,0.16107035,0.00125221,-0.00
 077134,0.00028078,-0.00072112,0.00047874,-0.00037028,-0.00043935,0.000
 30618,0.00019649,-0.00024753,0.00000743,-0.00011614,0.00103085,-0.0027
 0122,-0.00047623,0.00002460,0.00192841,0.00016257,-0.00092381,0.000925
 53,-0.00316024,-0.01649013,-0.01834013,0.02791486,-0.00146961,-0.00476
 264,-0.00790810,-0.08936292,-0.17624375,0.06038950,0.00189183,-0.03690
 503,0.04415816,0.10524281,0.21034176,-0.00121103,0.00068428,-0.0015876
 3,0.00084382,-0.00031299,0.00088141,-0.00013974,-0.00009467,0.00044449
 ,0.00022079,0.00011614,0.00045953,0.00052912,-0.00119796,-0.00108313,-
 0.00033342,0.00027896,0.00049915,0.00088378,0.00167071,-0.00145555,-0.
 00161695,-0.00202519,0.00625452,0.00115996,0.00063022,-0.00024726,0.04
 220916,0.05921490,-0.10873771,0.00210542,0.04918039,-0.03101872,-0.094
 43774,-0.12136853,0.17009526,0.00363834,-0.00007597,0.00196485,-0.0045
 8985,-0.00225177,-0.00098762,-0.00036762,0.00014517,-0.00014510,-0.000
 85961,-0.00072106,-0.00084404,-0.00073585,0.00292625,0.00129452,-0.000
 87490,-0.00161982,-0.00195311,0.00043918,-0.00070360,0.00117672,0.0038
 8361,-0.00110566,-0.00268195,0.00047098,-0.00027722,0.00170186,-0.1126
 0228,0.05100377,0.05393370,-0.04190834,0.04865254,0.01199479,-0.030472
 19,0.00183132,0.05009327,0.18353659,-0.00041370,-0.00146361,-0.0009201
 5,-0.00225152,-0.00100527,0.00044505,-0.00048419,0.00042363,0.00053928
 ,0.00019295,0.00047881,0.00031307,0.00041606,-0.00465851,-0.00406398,0
 .00031145,0.00341753,0.00171100,-0.00577655,0.00122510,0.00106795,0.02
 741203,-0.01036931,-0.01745894,-0.00674496,-0.00567125,-0.00244870,0.0
 4995293,-0.13899941,-0.08557397,0.04372870,-0.02698390,-0.00709085,-0.
 00848484,0.02501820,0.01463044,-0.09784455,0.15886173,-0.00134953,0.00
 029428,-0.00304631,0.00098699,-0.00044528,0.00178716,-0.00036488,0.000
 03290,0.00085816,0.00032576,0.00037038,0.00088143,0.00044257,-0.002747
 90,-0.00593665,-0.00127231,0.00212952,0.00118831,-0.00533291,0.0021249
 5,0.00083882,0.02958776,-0.02007660,-0.01037825,-0.00708345,-0.0079459
 9,-0.00441144,0.05569877,-0.07800572,-0.16874641,-0.00160655,0.0033907
 8,0.02361362,0.04467547,0.00263789,-0.03613623,-0.11515126,0.09862829,
 0.19872536,0.00016232,0.00022064,-0.00079222,-0.00027753,0.00039941,-0
 .00023000,0.00020890,-0.00028816,-0.00029691,-0.00227252,-0.00178006,0
 .00005461,0.01548068,0.01584847,0.01249304,-0.00568901,0.00222004,-0.0
 0035438,-0.09528186,-0.08291349,-0.06195211,-0.01463127,-0.01713453,-0
 .01813405,0.00317540,-0.00101030,0.00388342,-0.00136578,0.00357695,-0.
 00035932,-0.00147512,-0.00017746,-0.00145140,0.00020732,0.00016004,-0.
 00025140,0.00071955,-0.00041292,0.00021409,0.10695511,0.00048672,-0.00
 022718,-0.00038102,0.00003966,-0.00031470,0.00025256,-0.00000832,0.000
 12135,0.00002825,-0.00050464,0.00029760,0.00107360,-0.00601560,-0.0126
 9293,-0.00745556,0.00344528,0.00047004,-0.00110559,-0.08930590,-0.1725
 6834,-0.10839997,0.00958160,0.01065689,0.01181277,-0.00122780,0.001129
 97,-0.00068349,0.00121658,-0.00253612,0.00081186,0.00100965,0.00036264
 ,0.00098450,-0.00000718,0.00041812,-0.00033201,0.00000064,0.00004069,-
 0.00013484,0.08865280,0.18631581,0.00031432,-0.00149822,-0.00083158,0.
 00020092,0.00002571,0.00030843,-0.00032217,0.00042879,0.00046662,0.000
 65142,0.00166085,0.00105316,-0.00987857,-0.01187580,-0.00921870,0.0024
 0580,-0.00054636,-0.00023245,-0.06599400,-0.10514970,-0.13446435,-0.01
 281642,-0.01322893,-0.01406654,0.00403038,-0.00061956,0.00224101,-0.00
 111828,0.00252311,-0.00046121,-0.00101067,-0.00011135,-0.00094858,0.00
 018363,-0.00067943,0.00057995,-0.00019625,0.00024828,0.00045470,0.0753
 6831,0.11618495,0.14242669,-0.00136676,0.00357698,0.00036051,0.0007195
 5,-0.00041325,-0.00021364,-0.00147550,-0.00017828,0.00145109,0.0002075
 4,0.00016021,0.00025153,-0.01463760,-0.01715125,0.01812249,0.00317777,
 -0.00100735,-0.00388298,-0.09531969,-0.08298528,0.06190443,0.01548331,
 0.01585240,-0.01247514,-0.00568970,0.00222253,0.00035280,0.00016377,0.
 00022026,0.00079137,0.00020892,-0.00028831,0.00029726,-0.00227333,-0.0
 0177919,-0.00005502,-0.00027761,0.00039911,0.00022947,-0.00591618,-0.0
 0736351,0.00818159,0.10699552,0.00121610,-0.00253411,-0.00081257,0.000
 00063,0.00004084,0.00013451,0.00100927,0.00036314,-0.00098359,-0.00000
 748,0.00041740,0.00033186,0.00957677,0.01065548,-0.01179408,-0.0012258
 0,0.00112900,0.00068146,-0.08937835,-0.17271734,0.10835398,-0.00602567
 ,-0.01270469,0.00744967,0.00344724,0.00046752,0.00110848,0.00048609,-0
 .00022852,0.00038197,-0.00000859,0.00012177,-0.00002870,-0.00050368,0.
 00029975,-0.00107471,0.00003997,-0.00031444,-0.00025265,-0.00736141,-0
 .01147385,0.01263767,0.08873492,0.18647804,0.00111921,-0.00252378,-0.0
 0046284,0.00019639,-0.00024832,0.00045460,0.00101139,0.00011213,-0.000
 94875,-0.00018449,0.00067901,0.00058070,0.01282476,0.01323915,-0.01405
 972,-0.00403213,0.00061926,0.00223962,0.06593893,0.10510469,-0.1342878
 0,0.00988384,0.01187621,-0.00920537,-0.00240631,0.00054920,-0.00023236
 ,-0.00031403,0.00149886,-0.00083023,0.00032241,-0.00042905,0.00046688,
 -0.00065211,-0.00166130,0.00105191,-0.00020039,-0.00002676,0.00030773,
 -0.00819170,-0.01265601,0.01269285,-0.07531578,-0.11613328,0.14223279\
 \0.00000912,-0.00001235,0.00000441,-0.00000370,0.00000284,-0.00000685,
 -0.00000377,0.00000173,-0.00000347,-0.00000338,-0.00000013,0.00000091,
 -0.00000240,0.00000664,0.00000674,0.00000006,-0.00000248,0.00000298,0.
 00000158,-0.00000027,-0.00001596,0.00000145,-0.00000726,0.00000549,-0.
 00000020,0.00000241,0.00000357,-0.00001132,0.00001240,0.00000644,0.000
 00427,-0.00000160,-0.00000347,0.00000393,0.00000045,-0.00000003,0.0000
 0478,-0.00000309,-0.00000759,0.00000083,-0.00000025,0.00000310,-0.0000
 0126,0.00000096,0.00000374\\\@
 Job cpu time:       0 days 18 hours 16 minutes  4.5 seconds.
 Elapsed time:       0 days  2 hours 36 minutes 37.7 seconds.
 File lengths (MBytes):  RWF= 142966 Int=      0 D2E=      0 Chk=    120 Scr=      1
 Normal termination of Gaussian 16 at Tue Nov 23 21:41:18 2021.
