 Entering Gaussian System, Link 0=/home/artemiy/opt/gaussian/g16/g16
 Input=1,1,1-Trifluoro-2,4-pentanedione_enol_2_G4.gjf
 Output=1,1,1-Trifluoro-2,4-pentanedione_enol_2_G4.log
 Initial command:
 /home/artemiy/opt/gaussian/g16/l1.exe "/home/artemiy/opt/gaussian/scr/Gau-2014.inp" -scrdir="/home/artemiy/opt/gaussian/scr/"
 Entering Link 1 = /home/artemiy/opt/gaussian/g16/l1.exe PID=      2016.
  
 Copyright (c) 1988,1990,1992,1993,1995,1998,2003,2009,2016,
            Gaussian, Inc.  All Rights Reserved.
  
 This is part of the Gaussian(R) 16 program.  It is based on
 the Gaussian(R) 09 system (copyright 2009, Gaussian, Inc.),
 the Gaussian(R) 03 system (copyright 2003, Gaussian, Inc.),
 the Gaussian(R) 98 system (copyright 1998, Gaussian, Inc.),
 the Gaussian(R) 94 system (copyright 1995, Gaussian, Inc.),
 the Gaussian 92(TM) system (copyright 1992, Gaussian, Inc.),
 the Gaussian 90(TM) system (copyright 1990, Gaussian, Inc.),
 the Gaussian 88(TM) system (copyright 1988, Gaussian, Inc.),
 the Gaussian 86(TM) system (copyright 1986, Carnegie Mellon
 University), and the Gaussian 82(TM) system (copyright 1983,
 Carnegie Mellon University). Gaussian is a federally registered
 trademark of Gaussian, Inc.
  
 This software contains proprietary and confidential information,
 including trade secrets, belonging to Gaussian, Inc.
  
 This software is provided under written license and may be
 used, copied, transmitted, or stored only in accord with that
 written license.
  
 The following legend is applicable only to US Government
 contracts under FAR:
  
                    RESTRICTED RIGHTS LEGEND
  
 Use, reproduction and disclosure by the US Government is
 subject to restrictions as set forth in subparagraphs (a)
 and (c) of the Commercial Computer Software - Restricted
 Rights clause in FAR 52.227-19.
  
 Gaussian, Inc.
 340 Quinnipiac St., Bldg. 40, Wallingford CT 06492
  
  
 ---------------------------------------------------------------
 Warning -- This program may not be used in any manner that
 competes with the business of Gaussian, Inc. or will provide
 assistance to any competitor of Gaussian, Inc.  The licensee
 of this program is prohibited from giving any competitor of
 Gaussian, Inc. access to this program.  By using this program,
 the user acknowledges that Gaussian, Inc. is engaged in the
 business of creating and licensing software in the field of
 computational chemistry and represents and warrants to the
 licensee that it is not a competitor of Gaussian, Inc. and that
 it will not use this program in any manner prohibited above.
 ---------------------------------------------------------------
  

 Cite this work as:
 Gaussian 16, Revision A.03,
 M. J. Frisch, G. W. Trucks, H. B. Schlegel, G. E. Scuseria, 
 M. A. Robb, J. R. Cheeseman, G. Scalmani, V. Barone, 
 G. A. Petersson, H. Nakatsuji, X. Li, M. Caricato, A. V. Marenich, 
 J. Bloino, B. G. Janesko, R. Gomperts, B. Mennucci, H. P. Hratchian, 
 J. V. Ortiz, A. F. Izmaylov, J. L. Sonnenberg, D. Williams-Young, 
 F. Ding, F. Lipparini, F. Egidi, J. Goings, B. Peng, A. Petrone, 
 T. Henderson, D. Ranasinghe, V. G. Zakrzewski, J. Gao, N. Rega, 
 G. Zheng, W. Liang, M. Hada, M. Ehara, K. Toyota, R. Fukuda, 
 J. Hasegawa, M. Ishida, T. Nakajima, Y. Honda, O. Kitao, H. Nakai, 
 T. Vreven, K. Throssell, J. A. Montgomery, Jr., J. E. Peralta, 
 F. Ogliaro, M. J. Bearpark, J. J. Heyd, E. N. Brothers, K. N. Kudin, 
 V. N. Staroverov, T. A. Keith, R. Kobayashi, J. Normand, 
 K. Raghavachari, A. P. Rendell, J. C. Burant, S. S. Iyengar, 
 J. Tomasi, M. Cossi, J. M. Millam, M. Klene, C. Adamo, R. Cammi, 
 J. W. Ochterski, R. L. Martin, K. Morokuma, O. Farkas, 
 J. B. Foresman, and D. J. Fox, Gaussian, Inc., Wallingford CT, 2016.
 
 ******************************************
 Gaussian 16:  ES64L-G16RevA.03 25-Dec-2016
                17-Nov-2021 
 ******************************************
 %mem=10GB
 %nprocshared=4
 Will use up to    4 processors via shared memory.
 -------------
 # g4 geom=gic
 -------------
 1/18=20,19=15,26=3,38=1,145=2/1,3;
 2/9=110,12=2,17=6,18=5,40=1/2;
 3/5=35,7=104,11=2,25=1,30=1,71=1,74=-5/1,2,3;
 4//1;
 5/5=2,38=5/2;
 6/7=2,8=2,9=2,10=2,28=1/1;
 7//1,2,3,16;
 1/18=20,19=15,26=3,145=2/3(2);
 2/9=110/2;
 99//99;
 2/9=110/2;
 3/5=35,7=104,11=2,25=1,30=1,71=1,74=-5/1,2,3;
 4/5=5,16=3,69=1/1;
 5/5=2,38=5/2;
 7//1,2,3,16;
 1/18=20,19=15,26=3,145=2/3(-5);
 2/9=110/2;
 6/7=2,8=2,9=2,10=2,19=2,28=1/1;
 99/9=1/99;
 -------------------
 CAS 367-57-7
 -------------------
 Symbolic Z-matrix:
 Charge =  0 Multiplicity = 1
 C                    -1.53762  -0.16014  -0.00008 
 F                    -2.19131   0.27972   1.08014 
 F                    -1.65351  -1.495    -0.00627 
 F                    -2.19606   0.29024  -1.07287 
 C                    -0.08189   0.28749  -0.00067 
 C                     0.93467  -0.60095  -0.00089 
 C                     2.31083  -0.11578  -0.00023 
 O                     2.56718   1.08238   0.00013 
 C                     3.37671  -1.16827   0.00034 
 H                     3.26671  -1.7996   -0.87924 
 H                     3.26617  -1.79898   0.8803 
 H                     4.36017  -0.70669   0.00053 
 H                     0.74532  -1.65934  -0.00131 
 O                     0.05191   1.59839  -0.00018 
 H                     1.03723   1.79237  -0.00004 
 
 Initializing the GIC definitions file.

 GradGradGradGradGradGradGradGradGradGradGradGradGradGradGradGradGradGrad
 Berny optimization.
 Initialization pass.
                           ----------------------------
                           !    Initial Parameters    !
                           ! (Angstroms and Degrees)  !
 --------------------------                            --------------------------
 ! Name  Definition              Value          Derivative Info.                !
 --------------------------------------------------------------------------------
 ! R1    R(1,2)                  1.337          estimate D2E/DX2                !
 ! R2    R(1,3)                  1.3399         estimate D2E/DX2                !
 ! R3    R(1,4)                  1.3369         estimate D2E/DX2                !
 ! R4    R(1,5)                  1.523          estimate D2E/DX2                !
 ! R5    R(5,6)                  1.3501         estimate D2E/DX2                !
 ! R6    R(5,14)                 1.3177         estimate D2E/DX2                !
 ! R7    R(6,7)                  1.4592         estimate D2E/DX2                !
 ! R8    R(6,13)                 1.0752         estimate D2E/DX2                !
 ! R9    R(7,8)                  1.2253         estimate D2E/DX2                !
 ! R10   R(7,9)                  1.498          estimate D2E/DX2                !
 ! R11   R(9,10)                 1.0883         estimate D2E/DX2                !
 ! R12   R(9,11)                 1.0883         estimate D2E/DX2                !
 ! R13   R(9,12)                 1.0864         estimate D2E/DX2                !
 ! R14   R(14,15)                1.0042         estimate D2E/DX2                !
 ! A1    A(2,1,3)              106.8099         estimate D2E/DX2                !
 ! A2    A(2,1,4)              107.259          estimate D2E/DX2                !
 ! A3    A(2,1,5)              111.7734         estimate D2E/DX2                !
 ! A4    A(3,1,4)              106.8174         estimate D2E/DX2                !
 ! A5    A(3,1,5)              112.054          estimate D2E/DX2                !
 ! A6    A(4,1,5)              111.8037         estimate D2E/DX2                !
 ! A7    A(1,5,6)              121.755          estimate D2E/DX2                !
 ! A8    A(1,5,14)             112.9203         estimate D2E/DX2                !
 ! A9    A(6,5,14)             125.3247         estimate D2E/DX2                !
 ! A10   A(5,6,7)              119.4271         estimate D2E/DX2                !
 ! A11   A(5,6,13)             121.0095         estimate D2E/DX2                !
 ! A12   A(7,6,13)             119.5635         estimate D2E/DX2                !
 ! A13   A(6,7,8)              121.4972         estimate D2E/DX2                !
 ! A14   A(6,7,9)              115.9415         estimate D2E/DX2                !
 ! A15   A(8,7,9)              122.5613         estimate D2E/DX2                !
 ! A16   A(7,9,10)             109.5955         estimate D2E/DX2                !
 ! A17   A(7,9,11)             109.5867         estimate D2E/DX2                !
 ! A18   A(7,9,12)             110.2192         estimate D2E/DX2                !
 ! A19   A(10,9,11)            107.8817         estimate D2E/DX2                !
 ! A20   A(10,9,12)            109.7625         estimate D2E/DX2                !
 ! A21   A(11,9,12)            109.7577         estimate D2E/DX2                !
 ! A22   A(5,14,15)            106.9651         estimate D2E/DX2                !
 ! D1    D(2,1,5,6)            119.5581         estimate D2E/DX2                !
 ! D2    D(2,1,5,14)           -60.4062         estimate D2E/DX2                !
 ! D3    D(3,1,5,6)             -0.2977         estimate D2E/DX2                !
 ! D4    D(3,1,5,14)           179.738          estimate D2E/DX2                !
 ! D5    D(4,1,5,6)           -120.1841         estimate D2E/DX2                !
 ! D6    D(4,1,5,14)            59.8516         estimate D2E/DX2                !
 ! D7    D(1,5,6,7)           -179.9442         estimate D2E/DX2                !
 ! D8    D(1,5,6,13)             0.0409         estimate D2E/DX2                !
 ! D9    D(14,5,6,7)             0.0155         estimate D2E/DX2                !
 ! D10   D(14,5,6,13)         -179.9994         estimate D2E/DX2                !
 ! D11   D(1,5,14,15)          179.9647         estimate D2E/DX2                !
 ! D12   D(6,5,14,15)            0.0019         estimate D2E/DX2                !
 ! D13   D(5,6,7,8)             -0.0218         estimate D2E/DX2                !
 ! D14   D(5,6,7,9)            179.9635         estimate D2E/DX2                !
 ! D15   D(13,6,7,8)           179.9929         estimate D2E/DX2                !
 ! D16   D(13,6,7,9)            -0.0219         estimate D2E/DX2                !
 ! D17   D(6,7,9,10)            59.0808         estimate D2E/DX2                !
 ! D18   D(6,7,9,11)           -59.1237         estimate D2E/DX2                !
 ! D19   D(6,7,9,12)           179.9843         estimate D2E/DX2                !
 ! D20   D(8,7,9,10)          -120.9342         estimate D2E/DX2                !
 ! D21   D(8,7,9,11)           120.8614         estimate D2E/DX2                !
 ! D22   D(8,7,9,12)            -0.0306         estimate D2E/DX2                !
 --------------------------------------------------------------------------------
 Trust Radius=3.00D-01 FncErr=1.00D-07 GrdErr=1.00D-06 EigMax=2.50D+02 EigMin=1.00D-04
 Number of steps in this run=     68 maximum allowed number of steps=    100.
 GradGradGradGradGradGradGradGradGradGradGradGradGradGradGradGradGradGrad

                          Input orientation:                          
 ---------------------------------------------------------------------
 Center     Atomic      Atomic             Coordinates (Angstroms)
 Number     Number       Type             X           Y           Z
 ---------------------------------------------------------------------
      1          6           0       -1.537619   -0.160144   -0.000078
      2          9           0       -2.191312    0.279725    1.080142
      3          9           0       -1.653506   -1.495003   -0.006268
      4          9           0       -2.196056    0.290244   -1.072875
      5          6           0       -0.081892    0.287489   -0.000673
      6          6           0        0.934670   -0.600953   -0.000890
      7          6           0        2.310828   -0.115777   -0.000226
      8          8           0        2.567180    1.082375    0.000129
      9          6           0        3.376709   -1.168275    0.000337
     10          1           0        3.266709   -1.799595   -0.879238
     11          1           0        3.266168   -1.798984    0.880299
     12          1           0        4.360171   -0.706691    0.000529
     13          1           0        0.745324   -1.659337   -0.001305
     14          8           0        0.051906    1.598388   -0.000182
     15          1           0        1.037228    1.792368   -0.000039
 ---------------------------------------------------------------------
                    Distance matrix (angstroms):
                    1          2          3          4          5
     1  C    0.000000
     2  F    1.337040   0.000000
     3  F    1.339894   2.149228   0.000000
     4  F    1.336893   2.153048   2.149214   0.000000
     5  C    1.522996   2.370206   2.376401   2.370510   0.000000
     6  C    2.511279   3.422862   2.738249   3.427073   1.350084
     7  C    3.848702   4.646814   4.197409   4.650530   2.426465
     8  O    4.288732   4.945090   4.945412   4.946436   2.765759
     9  C    5.016667   5.853677   5.040819   5.859588   3.752488
    10  H    5.151920   6.160578   5.006332   5.852070   4.042390
    11  H    5.151429   5.843377   5.008153   6.165684   4.042151
    12  H    5.923060   6.712712   6.065129   6.717901   4.551957
    13  H    2.731191   3.681483   2.404457   3.687932   2.115282
    14  O    2.370448   2.817446   3.532355   2.813405   1.317709
    15  H    3.231430   3.725366   4.248163   3.723101   1.875390
                    6          7          8          9         10
     6  C    0.000000
     7  C    1.459180   0.000000
     8  O    2.344927   1.225269   0.000000
     9  C    2.507073   1.497950   2.391812   0.000000
    10  H    2.765256   2.126408   3.093280   1.088263   0.000000
    11  H    2.765440   2.126308   3.092817   1.088277   1.759537
    12  H    3.427133   2.132836   2.532899   1.086396   1.778789
    13  H    1.075188   2.198495   3.291830   2.676814   2.673541
    14  O    2.369888   2.835681   2.567658   4.325359   4.759620
    15  H    2.395517   2.294139   1.686666   3.773404   4.318075
                   11         12         13         14         15
    11  H    0.000000
    12  H    1.778747   0.000000
    13  H    2.674207   3.738269   0.000000
    14  O    4.759082   4.886157   3.330705   0.000000
    15  H    4.317520   4.157793   3.464026   1.004235   0.000000
 Stoichiometry    C5H5F3O2
 Framework group  C1[X(C5H5F3O2)]
 Deg. of freedom    39
 Full point group                 C1      NOp   1
 Largest Abelian subgroup         C1      NOp   1
 Largest concise Abelian subgroup C1      NOp   1
                         Standard orientation:                         
 ---------------------------------------------------------------------
 Center     Atomic      Atomic             Coordinates (Angstroms)
 Number     Number       Type             X           Y           Z
 ---------------------------------------------------------------------
      1          6           0        1.651650    0.188987   -0.000073
      2          9           0        2.318165   -0.231199    1.080147
      3          9           0        1.727691    1.526707   -0.006263
      4          9           0        2.323221   -0.241572   -1.072870
      5          6           0        0.209914   -0.301845   -0.000669
      6          6           0       -0.832681    0.555897   -0.000885
      7          6           0       -2.193764    0.029912   -0.000222
      8          8           0       -2.414283   -1.175350    0.000133
      9          6           0       -3.290548    1.050166    0.000342
     10          1           0       -3.199417    1.684485   -0.879233
     11          1           0       -3.198858    1.683890    0.880303
     12          1           0       -4.259812    0.559469    0.000534
     13          1           0       -0.674971    1.619455   -0.001300
     14          8           0        0.115255   -1.616149   -0.000177
     15          1           0       -0.863846   -1.839417   -0.000034
 ---------------------------------------------------------------------
 Rotational constants (GHZ):           2.7176613           0.7565614           0.6625609
 Standard basis: GTBas3 (6D, 7F)
 There are   335 symmetry adapted cartesian basis functions of A   symmetry.
 There are   305 symmetry adapted basis functions of A   symmetry.
   305 basis functions,   475 primitive gaussians,   335 cartesian basis functions
    39 alpha electrons       39 beta electrons
       nuclear repulsion energy       566.6760184018 Hartrees.
 NAtoms=   15 NActive=   15 NUniq=   15 SFac= 1.00D+00 NAtFMM=   60 NAOKFM=F Big=F
 Integral buffers will be    131072 words long.
 Raffenetti 2 integral format.
 Two-electron integral symmetry is turned on.
 One-electron integrals computed using PRISM.
 NBasis=   305 RedAO= T EigKep=  3.76D-04  NBF=   305
 NBsUse=   305 1.00D-06 EigRej= -1.00D+00 NBFU=   305
 ExpMin= 1.61D-01 ExpMax= 7.00D+03 ExpMxC= 1.05D+03 IAcc=3 IRadAn=         5 AccDes= 0.00D+00
 Harris functional with IExCor=  402 and IRadAn=       5 diagonalized for initial guess.
 HarFok:  IExCor=  402 AccDes= 0.00D+00 IRadAn=         5 IDoV= 1 UseB2=F ITyADJ=14
 ICtDFT=  3500011 ScaDFX=  1.000000  1.000000  1.000000  1.000000
 FoFCou: FMM=F IPFlag=           0 FMFlag=      100000 FMFlg1=           0
         NFxFlg=           0 DoJE=T BraDBF=F KetDBF=T FulRan=T
         wScrn=  0.000000 ICntrl=       500 IOpCl=  0 I1Cent=   200000004 NGrid=           0
         NMat0=    1 NMatS0=      1 NMatT0=    0 NMatD0=    1 NMtDS0=    0 NMtDT0=    0
 Petite list used in FoFCou.
 Keep R1 ints in memory in canonical form, NReq=1107802389.
 Requested convergence on RMS density matrix=1.00D-08 within 128 cycles.
 Requested convergence on MAX density matrix=1.00D-06.
 Requested convergence on             energy=1.00D-06.
 No special actions if energy rises.
 Integral accuracy reduced to 1.0D-05 until final iterations.
 Initial convergence to 1.0D-05 achieved.  Increase integral accuracy.
 SCF Done:  E(RB3LYP) =  -643.552522344     A.U. after   14 cycles
            NFock= 14  Conv=0.45D-08     -V/T= 2.0061

 **********************************************************************

            Population analysis using the SCF density.

 **********************************************************************

 Orbital symmetries:
       Occupied  (A) (A) (A) (A) (A) (A) (A) (A) (A) (A) (A) (A)
                 (A) (A) (A) (A) (A) (A) (A) (A) (A) (A) (A) (A)
                 (A) (A) (A) (A) (A) (A) (A) (A) (A) (A) (A) (A)
                 (A) (A) (A)
       Virtual   (A) (A) (A) (A) (A) (A) (A) (A) (A) (A) (A) (A)
                 (A) (A) (A) (A) (A) (A) (A) (A) (A) (A) (A) (A)
                 (A) (A) (A) (A) (A) (A) (A) (A) (A) (A) (A) (A)
                 (A) (A) (A) (A) (A) (A) (A) (A) (A) (A) (A) (A)
                 (A) (A) (A) (A) (A) (A) (A) (A) (A) (A) (A) (A)
                 (A) (A) (A) (A) (A) (A) (A) (A) (A) (A) (A) (A)
                 (A) (A) (A) (A) (A) (A) (A) (A) (A) (A) (A) (A)
                 (A) (A) (A) (A) (A) (A) (A) (A) (A) (A) (A) (A)
                 (A) (A) (A) (A) (A) (A) (A) (A) (A) (A) (A) (A)
                 (A) (A) (A) (A) (A) (A) (A) (A) (A) (A) (A) (A)
                 (A) (A) (A) (A) (A) (A) (A) (A) (A) (A) (A) (A)
                 (A) (A) (A) (A) (A) (A) (A) (A) (A) (A) (A) (A)
                 (A) (A) (A) (A) (A) (A) (A) (A) (A) (A) (A) (A)
                 (A) (A) (A) (A) (A) (A) (A) (A) (A) (A) (A) (A)
                 (A) (A) (A) (A) (A) (A) (A) (A) (A) (A) (A) (A)
                 (A) (A) (A) (A) (A) (A) (A) (A) (A) (A) (A) (A)
                 (A) (A) (A) (A) (A) (A) (A) (A) (A) (A) (A) (A)
                 (A) (A) (A) (A) (A) (A) (A) (A) (A) (A) (A) (A)
                 (A) (A) (A) (A) (A) (A) (A) (A) (A) (A) (A) (A)
                 (A) (A) (A) (A) (A) (A) (A) (A) (A) (A) (A) (A)
                 (A) (A) (A) (A) (A) (A) (A) (A) (A) (A) (A) (A)
                 (A) (A) (A) (A) (A) (A) (A) (A) (A) (A) (A) (A)
                 (A) (A)
 The electronic state is 1-A.
 Alpha  occ. eigenvalues --  -24.73181 -24.72729 -24.72725 -19.19419 -19.15130
 Alpha  occ. eigenvalues --  -10.43478 -10.29176 -10.28905 -10.20034 -10.19930
 Alpha  occ. eigenvalues --   -1.31956  -1.22848  -1.22617  -1.09878  -1.05648
 Alpha  occ. eigenvalues --   -0.81675  -0.76873  -0.72381  -0.65335  -0.60526
 Alpha  occ. eigenvalues --   -0.59385  -0.57451  -0.56484  -0.50444  -0.49185
 Alpha  occ. eigenvalues --   -0.47210  -0.46543  -0.46400  -0.44145  -0.43863
 Alpha  occ. eigenvalues --   -0.43018  -0.41897  -0.41214  -0.40723  -0.40086
 Alpha  occ. eigenvalues --   -0.38039  -0.37625  -0.27445  -0.26630
 Alpha virt. eigenvalues --   -0.06744   0.04564   0.08793   0.11062   0.13515
 Alpha virt. eigenvalues --    0.14628   0.16709   0.17032   0.20754   0.21233
 Alpha virt. eigenvalues --    0.22842   0.23764   0.25874   0.29523   0.34493
 Alpha virt. eigenvalues --    0.37838   0.38650   0.40081   0.42788   0.42935
 Alpha virt. eigenvalues --    0.47825   0.49182   0.50599   0.50644   0.51829
 Alpha virt. eigenvalues --    0.55126   0.55679   0.56313   0.57375   0.62162
 Alpha virt. eigenvalues --    0.63517   0.64855   0.67185   0.70411   0.70620
 Alpha virt. eigenvalues --    0.71432   0.72888   0.74663   0.75662   0.79011
 Alpha virt. eigenvalues --    0.80094   0.82133   0.83778   0.84762   0.85685
 Alpha virt. eigenvalues --    0.87768   0.88743   0.88984   0.92102   0.93495
 Alpha virt. eigenvalues --    0.93672   0.95267   0.96361   0.98527   0.98841
 Alpha virt. eigenvalues --    0.99962   1.01372   1.02585   1.02877   1.04100
 Alpha virt. eigenvalues --    1.04570   1.06143   1.09840   1.12784   1.15754
 Alpha virt. eigenvalues --    1.18078   1.18412   1.19946   1.20225   1.25641
 Alpha virt. eigenvalues --    1.29380   1.30413   1.33408   1.35409   1.37949
 Alpha virt. eigenvalues --    1.38244   1.39398   1.41226   1.42960   1.45772
 Alpha virt. eigenvalues --    1.46604   1.46835   1.51016   1.52076   1.54529
 Alpha virt. eigenvalues --    1.55393   1.57402   1.60719   1.60807   1.66377
 Alpha virt. eigenvalues --    1.68759   1.70907   1.73178   1.78039   1.78960
 Alpha virt. eigenvalues --    1.80360   1.83408   1.83920   1.85155   1.89463
 Alpha virt. eigenvalues --    1.92803   1.93408   1.96810   1.99551   2.05004
 Alpha virt. eigenvalues --    2.15310   2.15854   2.19153   2.23806   2.24692
 Alpha virt. eigenvalues --    2.30308   2.32670   2.34604   2.38160   2.39931
 Alpha virt. eigenvalues --    2.45203   2.49640   2.52792   2.65894   2.66508
 Alpha virt. eigenvalues --    2.75465   2.78587   2.80985   2.85657   2.88131
 Alpha virt. eigenvalues --    2.89521   2.90935   2.93746   2.95554   3.01156
 Alpha virt. eigenvalues --    3.03801   3.07739   3.08271   3.11318   3.12139
 Alpha virt. eigenvalues --    3.13570   3.18080   3.20036   3.23614   3.23979
 Alpha virt. eigenvalues --    3.25302   3.30036   3.34260   3.34676   3.38874
 Alpha virt. eigenvalues --    3.46632   3.48403   3.51144   3.53815   3.54785
 Alpha virt. eigenvalues --    3.56677   3.67862   3.71602   3.76367   3.77739
 Alpha virt. eigenvalues --    3.80415   3.81929   3.90018   3.90342   3.96965
 Alpha virt. eigenvalues --    4.00959   4.02349   4.03424   4.05061   4.10207
 Alpha virt. eigenvalues --    4.14007   4.14035   4.15572   4.17454   4.18306
 Alpha virt. eigenvalues --    4.19789   4.20983   4.21170   4.23296   4.24449
 Alpha virt. eigenvalues --    4.24955   4.29014   4.29152   4.31793   4.35025
 Alpha virt. eigenvalues --    4.35277   4.37143   4.38700   4.40693   4.41480
 Alpha virt. eigenvalues --    4.44515   4.46876   4.49150   4.54448   4.55043
 Alpha virt. eigenvalues --    4.57174   4.59246   4.60459   4.61778   4.61876
 Alpha virt. eigenvalues --    4.66720   4.67596   4.71153   4.72255   4.73257
 Alpha virt. eigenvalues --    4.74778   4.76774   4.78430   4.80375   4.80586
 Alpha virt. eigenvalues --    4.85960   4.91418   4.97316   5.03251   5.06516
 Alpha virt. eigenvalues --    5.09850   5.12141   5.13562   5.15943   5.27223
 Alpha virt. eigenvalues --    5.27977   5.42601   5.43331   5.51435   5.51610
 Alpha virt. eigenvalues --    5.55444   5.63264   5.70059   5.75369   5.82481
 Alpha virt. eigenvalues --    5.89267   5.99484   6.00560   6.21967   6.31474
 Alpha virt. eigenvalues --    6.44689   6.46500   6.60030   6.60527   6.60840
 Alpha virt. eigenvalues --    6.61232   6.61320   6.62758   6.63724   6.67060
 Alpha virt. eigenvalues --    6.73909   6.74231   6.77789   6.80377   6.83395
 Alpha virt. eigenvalues --    6.95688   7.12461   7.18838   7.20216   7.28176
 Alpha virt. eigenvalues --    7.40588   7.43092   7.43364   7.47807   7.51171
 Alpha virt. eigenvalues --    8.01624   9.58533   9.64176   9.74305  10.22428
 Alpha virt. eigenvalues --   10.96603  11.47455  11.96977  12.21325  13.17761
 Alpha virt. eigenvalues --   13.53040
          Condensed to atoms (all electrons):
               1          2          3          4          5          6
     1  C    4.222871   0.434266   0.465381   0.434443   0.204359  -0.010850
     2  F    0.434266   8.747910  -0.043013  -0.048151  -0.026069   0.001409
     3  F    0.465381  -0.043013   8.731195  -0.042942  -0.066736   0.013656
     4  F    0.434443  -0.048151  -0.042942   8.747393  -0.026035   0.001457
     5  C    0.204359  -0.026069  -0.066736  -0.026035   4.959355   0.361622
     6  C   -0.010850   0.001409   0.013656   0.001457   0.361622   5.514394
     7  C    0.002369  -0.000064   0.000610  -0.000064  -0.004648   0.338278
     8  O    0.000218   0.000000  -0.000000   0.000000   0.001326  -0.088290
     9  C   -0.000143   0.000000  -0.000003   0.000000   0.000001  -0.097948
    10  H    0.000004  -0.000000  -0.000000  -0.000000   0.000181   0.002186
    11  H    0.000004  -0.000000  -0.000000  -0.000000   0.000181   0.002185
    12  H    0.000000  -0.000000   0.000000  -0.000000  -0.000024   0.004490
    13  H   -0.002949   0.000209   0.009884   0.000209  -0.025834   0.352452
    14  O   -0.010973  -0.002335   0.000319  -0.002337   0.445406  -0.037953
    15  H    0.001364  -0.000082  -0.000016  -0.000081  -0.041664  -0.020742
               7          8          9         10         11         12
     1  C    0.002369   0.000218  -0.000143   0.000004   0.000004   0.000000
     2  F   -0.000064   0.000000   0.000000  -0.000000  -0.000000  -0.000000
     3  F    0.000610  -0.000000  -0.000003  -0.000000  -0.000000   0.000000
     4  F   -0.000064   0.000000   0.000000  -0.000000  -0.000000  -0.000000
     5  C   -0.004648   0.001326   0.000001   0.000181   0.000181  -0.000024
     6  C    0.338278  -0.088290  -0.097948   0.002186   0.002185   0.004490
     7  C    4.276769   0.709830   0.353301  -0.016293  -0.016299  -0.010139
     8  O    0.709830   7.757968  -0.045868   0.000575   0.000571   0.002615
     9  C    0.353301  -0.045868   5.188866   0.362493   0.362499   0.356388
    10  H   -0.016293   0.000575   0.362493   0.549869  -0.026460  -0.023918
    11  H   -0.016299   0.000571   0.362499  -0.026460   0.549841  -0.023915
    12  H   -0.010139   0.002615   0.356388  -0.023918  -0.023915   0.548729
    13  H   -0.020971   0.002396  -0.000495   0.000658   0.000656  -0.000169
    14  O   -0.008477  -0.034630   0.000018   0.000006   0.000006   0.000003
    15  H   -0.004582   0.076883   0.002496  -0.000071  -0.000071  -0.000049
              13         14         15
     1  C   -0.002949  -0.010973   0.001364
     2  F    0.000209  -0.002335  -0.000082
     3  F    0.009884   0.000319  -0.000016
     4  F    0.000209  -0.002337  -0.000081
     5  C   -0.025834   0.445406  -0.041664
     6  C    0.352452  -0.037953  -0.020742
     7  C   -0.020971  -0.008477  -0.004582
     8  O    0.002396  -0.034630   0.076883
     9  C   -0.000495   0.000018   0.002496
    10  H    0.000658   0.000006  -0.000071
    11  H    0.000656   0.000006  -0.000071
    12  H   -0.000169   0.000003  -0.000049
    13  H    0.558256   0.002060  -0.000277
    14  O    0.002060   7.756047   0.286360
    15  H   -0.000277   0.286360   0.359233
 Mulliken charges:
               1
     1  C    0.259635
     2  F   -0.064081
     3  F   -0.068336
     4  F   -0.063891
     5  C    0.218579
     6  C   -0.336345
     7  C    0.400379
     8  O   -0.383593
     9  C   -0.481605
    10  H    0.150770
    11  H    0.150803
    12  H    0.145988
    13  H    0.123916
    14  O   -0.393519
    15  H    0.341299
 Sum of Mulliken charges =  -0.00000
 Mulliken charges with hydrogens summed into heavy atoms:
               1
     1  C    0.259635
     2  F   -0.064081
     3  F   -0.068336
     4  F   -0.063891
     5  C    0.218579
     6  C   -0.212429
     7  C    0.400379
     8  O   -0.383593
     9  C   -0.034044
    14  O   -0.052220
 Electronic spatial extent (au):  <R**2>=           1631.5736
 Charge=             -0.0000 electrons
 Dipole moment (field-independent basis, Debye):
    X=             -1.9907    Y=              2.0965    Z=             -0.0015  Tot=              2.8911
 Quadrupole moment (field-independent basis, Debye-Ang):
   XX=            -55.2598   YY=            -55.0335   ZZ=            -54.5801
   XY=             -4.8638   XZ=             -0.0019   YZ=              0.0002
 Traceless Quadrupole moment (field-independent basis, Debye-Ang):
   XX=             -0.3020   YY=             -0.0757   ZZ=              0.3777
   XY=             -4.8638   XZ=             -0.0019   YZ=              0.0002
 Octapole moment (field-independent basis, Debye-Ang**2):
  XXX=             24.5791  YYY=             -1.0676  ZZZ=             -0.0057  XYY=              9.6066
  XXY=             14.9077  XXZ=              0.0023  XZZ=              9.0263  YZZ=             -0.1952
  YYZ=              0.0139  XYZ=             -0.0050
 Hexadecapole moment (field-independent basis, Debye-Ang**3):
 XXXX=          -1346.0786 YYYY=           -326.6076 ZZZZ=           -113.8760 XXXY=            -21.9181
 XXXZ=              0.0174 YYYX=             16.6407 YYYZ=              0.0037 ZZZX=             -0.0265
 ZZZY=              0.0005 XXYY=           -295.3208 XXZZ=           -248.5431 YYZZ=            -72.6770
 XXYZ=             -0.0103 YYXZ=              0.0268 ZZXY=              5.2213
 N-N= 5.666760184018D+02 E-N=-2.651408313619D+03  KE= 6.396702308923D+02
 Calling FoFJK, ICntrl=      2127 FMM=F ISym2X=0 I1Cent= 0 IOpClX= 0 NMat=1 NMatS=1 NMatT=0.
 ***** Axes restored to original set *****
 -------------------------------------------------------------------
 Center     Atomic                   Forces (Hartrees/Bohr)
 Number     Number              X              Y              Z
 -------------------------------------------------------------------
      1        6          -0.011272166   -0.004831343    0.000022185
      2        9           0.004190831    0.003853039    0.001408349
      3        9           0.005959042   -0.000263367   -0.000005798
      4        9           0.004208992    0.003871303   -0.001408566
      5        6          -0.003836327   -0.000463246   -0.000012832
      6        6           0.004433419    0.001860084   -0.000010923
      7        6          -0.012180163   -0.012268477    0.000008378
      8        8           0.005204300    0.014945150   -0.000001049
      9        6           0.006332227    0.004210959    0.000001519
     10        1          -0.000039833   -0.003668001   -0.003027118
     11        1          -0.000040643   -0.003665615    0.003024919
     12        1           0.003009336    0.000660522   -0.000000786
     13        1          -0.002703943   -0.002616125   -0.000005331
     14        8           0.000812760    0.004626251    0.000003500
     15        1          -0.004077835   -0.006251133    0.000003552
 -------------------------------------------------------------------
 Cartesian Forces:  Max     0.014945150 RMS     0.004823271

 GradGradGradGradGradGradGradGradGradGradGradGradGradGradGradGradGradGrad
 Berny optimization.
 FormGI is forming the generalized inverse of G from B-inverse, IUseBI=4.
 Internal  Forces:  Max     0.015703241 RMS     0.004171486
 Search for a local minimum.
 Step number   1 out of a maximum of   68
 All quantities printed in internal units (Hartrees-Bohrs-Radians)
 Mixed Optimization -- RFO/linear search
 Second derivative matrix not updated -- first step.
 ITU=  0
     Eigenvalues ---    0.00462   0.00793   0.00995   0.01306   0.01720
     Eigenvalues ---    0.02038   0.02749   0.02780   0.07402   0.07569
     Eigenvalues ---    0.10599   0.10612   0.16000   0.16000   0.16000
     Eigenvalues ---    0.16000   0.16000   0.22000   0.25000   0.25000
     Eigenvalues ---    0.25000   0.25000   0.25000   0.25000   0.25000
     Eigenvalues ---    0.30080   0.32593   0.35013   0.35014   0.35232
     Eigenvalues ---    0.36582   0.37067   0.46951   0.55004   0.57229
     Eigenvalues ---    0.57873   0.57907   0.62506   0.93086
 RFO step:  Lambda=-3.34723163D-03 EMin= 4.61752013D-03
 Linear search not attempted -- first point.
 Iteration  1 RMS(Cart)=  0.04879858 RMS(Int)=  0.00109504
 Iteration  2 RMS(Cart)=  0.00128224 RMS(Int)=  0.00012746
 Iteration  3 RMS(Cart)=  0.00000066 RMS(Int)=  0.00012746
 Variable       Old X    -DE/DX   Delta X   Delta X   Delta X     New X
                                 (Linear)    (Quad)   (Total)
    R1        2.52664   0.00036   0.00000   0.00061   0.00061   2.52725
    R2        2.53203  -0.00025   0.00000  -0.00044  -0.00044   2.53159
    R3        2.52636   0.00036   0.00000   0.00062   0.00062   2.52698
    R4        2.87805  -0.00372   0.00000  -0.01224  -0.01224   2.86580
    R5        2.55129   0.00338   0.00000   0.00611   0.00611   2.55739
    R6        2.49011  -0.00195   0.00000  -0.00310  -0.00310   2.48701
    R7        2.75745   0.00223   0.00000   0.00595   0.00595   2.76340
    R8        2.03181   0.00305   0.00000   0.00827   0.00827   2.04008
    R9        2.31542   0.01570   0.00000   0.01681   0.01681   2.33223
   R10        2.83072   0.00832   0.00000   0.02527   0.02527   2.85598
   R11        2.05652   0.00458   0.00000   0.01295   0.01295   2.06947
   R12        2.05655   0.00457   0.00000   0.01294   0.01294   2.06949
   R13        2.05299   0.00300   0.00000   0.00845   0.00845   2.06144
   R14        1.89773  -0.00521   0.00000  -0.01101  -0.01101   1.88671
    A1        1.86418   0.00792   0.00000   0.03418   0.03395   1.89814
    A2        1.87202   0.00598   0.00000   0.01788   0.01729   1.88931
    A3        1.95081  -0.00679   0.00000  -0.02833  -0.02875   1.92207
    A4        1.86431   0.00795   0.00000   0.03419   0.03396   1.89828
    A5        1.95571  -0.00651   0.00000  -0.02259  -0.02282   1.93289
    A6        1.95134  -0.00685   0.00000  -0.02860  -0.02901   1.92233
    A7        2.12503   0.00494   0.00000   0.01950   0.01950   2.14452
    A8        1.97083  -0.00124   0.00000  -0.00488  -0.00488   1.96595
    A9        2.18733  -0.00370   0.00000  -0.01462  -0.01462   2.17271
   A10        2.08440  -0.00345   0.00000  -0.01546  -0.01546   2.06894
   A11        2.11201  -0.00051   0.00000  -0.00596  -0.00596   2.10605
   A12        2.08678   0.00396   0.00000   0.02142   0.02142   2.10819
   A13        2.12053  -0.00147   0.00000  -0.00580  -0.00580   2.11473
   A14        2.02356   0.00748   0.00000   0.02953   0.02953   2.05309
   A15        2.13910  -0.00601   0.00000  -0.02373  -0.02373   2.11536
   A16        1.91280   0.00109   0.00000   0.00601   0.00599   1.91880
   A17        1.91265   0.00109   0.00000   0.00605   0.00603   1.91868
   A18        1.92369   0.00071   0.00000   0.00565   0.00562   1.92931
   A19        1.88289  -0.00158   0.00000  -0.01236  -0.01236   1.87053
   A20        1.91572  -0.00068   0.00000  -0.00285  -0.00288   1.91284
   A21        1.91563  -0.00068   0.00000  -0.00283  -0.00286   1.91278
   A22        1.86689  -0.01014   0.00000  -0.06211  -0.06211   1.80479
    D1        2.08668   0.00093   0.00000   0.00943   0.00928   2.09596
    D2       -1.05429   0.00093   0.00000   0.00941   0.00926  -1.04502
    D3       -0.00520   0.00000   0.00000   0.00098   0.00099  -0.00421
    D4        3.13702   0.00000   0.00000   0.00097   0.00097   3.13799
    D5       -2.09761  -0.00090   0.00000  -0.00727  -0.00712  -2.10473
    D6        1.04461  -0.00090   0.00000  -0.00729  -0.00714   1.03747
    D7       -3.14062  -0.00000   0.00000  -0.00009  -0.00009  -3.14071
    D8        0.00071   0.00000   0.00000   0.00010   0.00010   0.00082
    D9        0.00027  -0.00000   0.00000  -0.00007  -0.00007   0.00020
   D10       -3.14158   0.00000   0.00000   0.00013   0.00013  -3.14145
   D11        3.14098  -0.00000   0.00000  -0.00016  -0.00016   3.14081
   D12        0.00003  -0.00001   0.00000  -0.00020  -0.00020  -0.00016
   D13       -0.00038   0.00000   0.00000  -0.00004  -0.00004  -0.00042
   D14        3.14095   0.00001   0.00000   0.00048   0.00049   3.14144
   D15        3.14147  -0.00000   0.00000  -0.00023  -0.00024   3.14123
   D16       -0.00038   0.00000   0.00000   0.00029   0.00029  -0.00009
   D17        1.03115  -0.00031   0.00000  -0.00419  -0.00420   1.02695
   D18       -1.03190   0.00031   0.00000   0.00368   0.00369  -1.02822
   D19        3.14132  -0.00000   0.00000  -0.00028  -0.00028   3.14104
   D20       -2.11070  -0.00031   0.00000  -0.00366  -0.00367  -2.11437
   D21        2.10943   0.00032   0.00000   0.00421   0.00422   2.11365
   D22       -0.00053   0.00000   0.00000   0.00026   0.00025  -0.00028
         Item               Value     Threshold  Converged?
 Maximum Force            0.015703     0.000450     NO 
 RMS     Force            0.004171     0.000300     NO 
 Maximum Displacement     0.204929     0.001800     NO 
 RMS     Displacement     0.049005     0.001200     NO 
 Predicted change in Energy=-1.695516D-03
 GradGradGradGradGradGradGradGradGradGradGradGradGradGradGradGradGradGrad

                          Input orientation:                          
 ---------------------------------------------------------------------
 Center     Atomic      Atomic             Coordinates (Angstroms)
 Number     Number       Type             X           Y           Z
 ---------------------------------------------------------------------
      1          6           0       -1.562530   -0.145067   -0.000126
      2          9           0       -2.175603    0.336600    1.086465
      3          9           0       -1.680494   -1.479514   -0.005288
      4          9           0       -2.178903    0.345410   -1.080717
      5          6           0       -0.102553    0.265171   -0.000489
      6          6           0        0.912066   -0.630379   -0.000666
      7          6           0        2.285984   -0.129621    0.000116
      8          8           0        2.524420    1.081292    0.000474
      9          6           0        3.403079   -1.147555    0.000103
     10          1           0        3.320694   -1.792420   -0.881171
     11          1           0        3.320629   -1.792340    0.881439
     12          1           0        4.374025   -0.650309    0.000156
     13          1           0        0.710422   -1.690941   -0.001312
     14          8           0        0.056603    1.571580    0.000127
     15          1           0        1.048668    1.683924    0.000552
 ---------------------------------------------------------------------
                    Distance matrix (angstroms):
                    1          2          3          4          5
     1  C    0.000000
     2  F    1.337364   0.000000
     3  F    1.339661   2.176082   0.000000
     4  F    1.337221   2.167203   2.176077   0.000000
     5  C    1.516518   2.341817   2.352413   2.341914   0.000000
     6  C    2.521736   3.413298   2.728080   3.416543   1.353315
     7  C    3.848546   4.615547   4.189891   4.618342   2.420945
     8  O    4.266980   4.881000   4.923318   4.881778   2.750827
     9  C    5.065793   5.874061   5.094402   5.878405   3.779584
    10  H    5.228374   6.213984   5.086940   5.903873   4.089976
    11  H    5.228375   5.897710   5.088749   6.218110   4.090150
    12  H    5.958017   6.712055   6.111040   6.715700   4.569230
    13  H    2.748826   3.690979   2.400249   3.695950   2.118326
    14  O    2.359760   2.772733   3.510942   2.769333   1.316068
    15  H    3.188035   3.659291   4.178002   3.657592   1.827067
                    6          7          8          9         10
     6  C    0.000000
     7  C    1.462330   0.000000
     8  O    2.351490   1.234164   0.000000
     9  C    2.544134   1.511321   2.395788   0.000000
    10  H    2.815514   2.147601   3.109593   1.095117   0.000000
    11  H    2.815926   2.147523   3.109310   1.095125   1.762610
    12  H    3.462017   2.151983   2.533670   1.090867   1.786242
    13  H    1.079562   2.218134   3.312985   2.746938   2.756442
    14  O    2.362295   2.804323   2.516049   4.311913   4.769431
    15  H    2.318331   2.195426   1.594055   3.682462   4.245528
                   11         12         13         14         15
    11  H    0.000000
    12  H    1.786208   0.000000
    13  H    2.757301   3.808531   0.000000
    14  O    4.769333   4.855608   3.327391   0.000000
    15  H    4.245254   4.062837   3.391774   0.998406   0.000000
 Stoichiometry    C5H5F3O2
 Framework group  C1[X(C5H5F3O2)]
 Deg. of freedom    39
 Full point group                 C1      NOp   1
 Largest Abelian subgroup         C1      NOp   1
 Largest concise Abelian subgroup C1      NOp   1
                         Standard orientation:                         
 ---------------------------------------------------------------------
 Center     Atomic      Atomic             Coordinates (Angstroms)
 Number     Number       Type             X           Y           Z
 ---------------------------------------------------------------------
      1          6           0        1.667730    0.199910   -0.000047
      2          9           0        2.299480   -0.257184    1.086461
      3          9           0        1.732393    1.538001   -0.004893
      4          9           0        2.303210   -0.265348   -1.080723
      5          6           0        0.225272   -0.268214   -0.000572
      6          6           0       -0.824248    0.586168   -0.000588
      7          6           0       -2.177108    0.031027    0.000014
      8          8           0       -2.367072   -1.188430    0.000080
      9          6           0       -3.333901    1.003611    0.000186
     10          1           0       -3.277262    1.651454   -0.880934
     11          1           0       -3.277258    1.650964    0.881676
     12          1           0       -4.284249    0.468046    0.000078
     13          1           0       -0.665052    1.653928   -0.000978
     14          8           0        0.118331   -1.579930   -0.000267
     15          1           0       -0.868465   -1.731741    0.000086
 ---------------------------------------------------------------------
 Rotational constants (GHZ):           2.7342315           0.7586084           0.6661434
 Standard basis: GTBas3 (6D, 7F)
 There are   335 symmetry adapted cartesian basis functions of A   symmetry.
 There are   305 symmetry adapted basis functions of A   symmetry.
   305 basis functions,   475 primitive gaussians,   335 cartesian basis functions
    39 alpha electrons       39 beta electrons
       nuclear repulsion energy       567.4317382021 Hartrees.
 NAtoms=   15 NActive=   15 NUniq=   15 SFac= 1.00D+00 NAtFMM=   60 NAOKFM=F Big=F
 Integral buffers will be    131072 words long.
 Raffenetti 2 integral format.
 Two-electron integral symmetry is turned on.
 One-electron integrals computed using PRISM.
 NBasis=   305 RedAO= T EigKep=  3.76D-04  NBF=   305
 NBsUse=   305 1.00D-06 EigRej= -1.00D+00 NBFU=   305
 Initial guess from the checkpoint file:  "/home/artemiy/opt/gaussian/scr/Gau-2016.chk"
 B after Tr=    -0.000000   -0.000000    0.000000
         Rot=    0.999998   -0.000247   -0.000028   -0.002068 Ang=  -0.24 deg.
 ExpMin= 1.61D-01 ExpMax= 7.00D+03 ExpMxC= 1.05D+03 IAcc=2 IRadAn=         4 AccDes= 0.00D+00
 Harris functional with IExCor=  402 and IRadAn=       4 diagonalized for initial guess.
 HarFok:  IExCor=  402 AccDes= 0.00D+00 IRadAn=         4 IDoV= 1 UseB2=F ITyADJ=14
 ICtDFT=  3500011 ScaDFX=  1.000000  1.000000  1.000000  1.000000
 FoFCou: FMM=F IPFlag=           0 FMFlag=      100000 FMFlg1=           0
         NFxFlg=           0 DoJE=T BraDBF=F KetDBF=T FulRan=T
         wScrn=  0.000000 ICntrl=       500 IOpCl=  0 I1Cent=   200000004 NGrid=           0
         NMat0=    1 NMatS0=      1 NMatT0=    0 NMatD0=    1 NMtDS0=    0 NMtDT0=    0
 Petite list used in FoFCou.
 Keep R1 ints in memory in canonical form, NReq=1107802389.
 Requested convergence on RMS density matrix=1.00D-08 within 128 cycles.
 Requested convergence on MAX density matrix=1.00D-06.
 Requested convergence on             energy=1.00D-06.
 No special actions if energy rises.
 Integral accuracy reduced to 1.0D-05 until final iterations.
 Initial convergence to 1.0D-05 achieved.  Increase integral accuracy.
 SCF Done:  E(RB3LYP) =  -643.553580821     A.U. after   12 cycles
            NFock= 12  Conv=0.44D-08     -V/T= 2.0062
 Calling FoFJK, ICntrl=      2127 FMM=F ISym2X=0 I1Cent= 0 IOpClX= 0 NMat=1 NMatS=1 NMatT=0.
 ***** Axes restored to original set *****
 -------------------------------------------------------------------
 Center     Atomic                   Forces (Hartrees/Bohr)
 Number     Number              X              Y              Z
 -------------------------------------------------------------------
      1        6           0.002606991   -0.000053351    0.000010994
      2        9          -0.001059369   -0.002189898   -0.002079099
      3        9          -0.003090946    0.003338474    0.000023787
      4        9          -0.001063254   -0.002205600    0.002035512
      5        6          -0.002689186    0.001439370    0.000009046
      6        6           0.007227097   -0.000291470    0.000005730
      7        6          -0.004927917   -0.010129067   -0.000058248
      8        8           0.002324183    0.004733537    0.000025279
      9        6           0.000693740    0.001697459    0.000017596
     10        1          -0.000065448   -0.000359122   -0.000003906
     11        1          -0.000060223   -0.000364208    0.000002158
     12        1          -0.000621867    0.000418690   -0.000000081
     13        1          -0.000193562    0.000305975    0.000004577
     14        8          -0.005829070   -0.002054812    0.000010943
     15        1           0.006748831    0.005714024   -0.000004288
 -------------------------------------------------------------------
 Cartesian Forces:  Max     0.010129067 RMS     0.002924666

 GradGradGradGradGradGradGradGradGradGradGradGradGradGradGradGradGradGrad
 Berny optimization.
 Using GEDIIS/GDIIS optimizer.
 FormGI is forming the generalized inverse of G from B-inverse, IUseBI=4.
 Internal  Forces:  Max     0.009279448 RMS     0.002680635
 Search for a local minimum.
 Step number   2 out of a maximum of   68
 All quantities printed in internal units (Hartrees-Bohrs-Radians)
 Mixed Optimization -- RFO/linear search
 Update second derivatives using D2CorX and points    1    2
 DE= -1.06D-03 DEPred=-1.70D-03 R= 6.24D-01
 TightC=F SS=  1.41D+00  RLast= 1.18D-01 DXNew= 5.0454D-01 3.5285D-01
 Trust test= 6.24D-01 RLast= 1.18D-01 DXMaxT set to 3.53D-01
 ITU=  1  0
 Use linear search instead of GDIIS.
     Eigenvalues ---    0.00462   0.00793   0.00998   0.01306   0.01706
     Eigenvalues ---    0.02027   0.02749   0.02780   0.07321   0.07509
     Eigenvalues ---    0.11013   0.11113   0.15603   0.16000   0.16000
     Eigenvalues ---    0.16000   0.17820   0.21320   0.22907   0.25000
     Eigenvalues ---    0.25000   0.25000   0.25000   0.25000   0.29540
     Eigenvalues ---    0.31744   0.33780   0.34612   0.35013   0.35240
     Eigenvalues ---    0.36529   0.38750   0.50474   0.55920   0.57515
     Eigenvalues ---    0.57891   0.59190   0.64626   0.88592
 RFO step:  Lambda=-5.23715288D-04 EMin= 4.61746113D-03
 Quartic linear search produced a step of -0.27134.
 Iteration  1 RMS(Cart)=  0.01937119 RMS(Int)=  0.00026415
 Iteration  2 RMS(Cart)=  0.00032578 RMS(Int)=  0.00003329
 Iteration  3 RMS(Cart)=  0.00000015 RMS(Int)=  0.00003329
 Variable       Old X    -DE/DX   Delta X   Delta X   Delta X     New X
                                 (Linear)    (Quad)   (Total)
    R1        2.52725  -0.00199  -0.00017  -0.00224  -0.00240   2.52485
    R2        2.53159  -0.00305   0.00012  -0.00407  -0.00396   2.52764
    R3        2.52698  -0.00196  -0.00017  -0.00220  -0.00237   2.52462
    R4        2.86580   0.00281   0.00332   0.00137   0.00470   2.87050
    R5        2.55739   0.00592  -0.00166   0.01049   0.00884   2.56623
    R6        2.48701   0.00374   0.00084   0.00301   0.00385   2.49086
    R7        2.76340  -0.00387  -0.00162  -0.00497  -0.00659   2.75682
    R8        2.04008  -0.00026  -0.00224   0.00311   0.00087   2.04094
    R9        2.33223   0.00509  -0.00456   0.01125   0.00669   2.33892
   R10        2.85598  -0.00098  -0.00686   0.00897   0.00211   2.85810
   R11        2.06947   0.00022  -0.00351   0.00616   0.00265   2.07212
   R12        2.06949   0.00022  -0.00351   0.00616   0.00265   2.07213
   R13        2.06144  -0.00036  -0.00229   0.00297   0.00068   2.06212
   R14        1.88671   0.00735   0.00299   0.00657   0.00956   1.89628
    A1        1.89814  -0.00391  -0.00921   0.00335  -0.00581   1.89232
    A2        1.88931  -0.00262  -0.00469   0.00042  -0.00412   1.88519
    A3        1.92207   0.00281   0.00780  -0.00464   0.00326   1.92533
    A4        1.89828  -0.00391  -0.00922   0.00336  -0.00581   1.89247
    A5        1.93289   0.00450   0.00619   0.00244   0.00868   1.94157
    A6        1.92233   0.00281   0.00787  -0.00477   0.00321   1.92554
    A7        2.14452  -0.00241  -0.00529   0.00169  -0.00360   2.14092
    A8        1.96595  -0.00285   0.00132  -0.01046  -0.00914   1.95681
    A9        2.17271   0.00526   0.00397   0.00878   0.01274   2.18545
   A10        2.06894   0.00478   0.00419   0.00886   0.01306   2.08200
   A11        2.10605  -0.00264   0.00162  -0.01182  -0.01020   2.09585
   A12        2.10819  -0.00214  -0.00581   0.00295  -0.00286   2.10533
   A13        2.11473   0.00074   0.00157  -0.00043   0.00115   2.11587
   A14        2.05309   0.00170  -0.00801   0.01811   0.01010   2.06319
   A15        2.11536  -0.00244   0.00644  -0.01768  -0.01124   2.10412
   A16        1.91880   0.00030  -0.00163   0.00405   0.00242   1.92122
   A17        1.91868   0.00031  -0.00164   0.00413   0.00250   1.92118
   A18        1.92931  -0.00099  -0.00152  -0.00186  -0.00337   1.92593
   A19        1.87053  -0.00030   0.00335  -0.00713  -0.00378   1.86675
   A20        1.91284   0.00035   0.00078   0.00033   0.00112   1.91396
   A21        1.91278   0.00035   0.00078   0.00034   0.00113   1.91391
   A22        1.80479   0.00928   0.01685   0.01380   0.03065   1.83544
    D1        2.09596  -0.00013  -0.00252   0.00512   0.00265   2.09861
    D2       -1.04502  -0.00013  -0.00251   0.00493   0.00246  -1.04257
    D3       -0.00421   0.00001  -0.00027   0.00239   0.00212  -0.00208
    D4        3.13799   0.00000  -0.00026   0.00220   0.00194   3.13992
    D5       -2.10473   0.00015   0.00193  -0.00026   0.00163  -2.10310
    D6        1.03747   0.00014   0.00194  -0.00046   0.00144   1.03891
    D7       -3.14071   0.00000   0.00003  -0.00010  -0.00008  -3.14079
    D8        0.00082   0.00000  -0.00003   0.00001  -0.00002   0.00080
    D9        0.00020   0.00000   0.00002   0.00011   0.00013   0.00033
   D10       -3.14145   0.00000  -0.00004   0.00022   0.00019  -3.14127
   D11        3.14081   0.00001   0.00004   0.00021   0.00026   3.14107
   D12       -0.00016   0.00001   0.00005   0.00002   0.00007  -0.00010
   D13       -0.00042   0.00001   0.00001   0.00073   0.00074   0.00032
   D14        3.14144  -0.00000  -0.00013   0.00016   0.00002   3.14146
   D15        3.14123   0.00001   0.00006   0.00061   0.00068  -3.14128
   D16       -0.00009  -0.00000  -0.00008   0.00004  -0.00004  -0.00013
   D17        1.02695   0.00001   0.00114  -0.00157  -0.00043   1.02653
   D18       -1.02822   0.00000  -0.00100   0.00223   0.00122  -1.02699
   D19        3.14104   0.00001   0.00008   0.00029   0.00037   3.14141
   D20       -2.11437  -0.00000   0.00099  -0.00214  -0.00114  -2.11551
   D21        2.11365  -0.00001  -0.00115   0.00166   0.00051   2.11416
   D22       -0.00028  -0.00001  -0.00007  -0.00028  -0.00035  -0.00063
         Item               Value     Threshold  Converged?
 Maximum Force            0.009279     0.000450     NO 
 RMS     Force            0.002681     0.000300     NO 
 Maximum Displacement     0.107596     0.001800     NO 
 RMS     Displacement     0.019564     0.001200     NO 
 Predicted change in Energy=-4.437295D-04
 GradGradGradGradGradGradGradGradGradGradGradGradGradGradGradGradGradGrad

                          Input orientation:                          
 ---------------------------------------------------------------------
 Center     Atomic      Atomic             Coordinates (Angstroms)
 Number     Number       Type             X           Y           Z
 ---------------------------------------------------------------------
      1          6           0       -1.563157   -0.148517   -0.000069
      2          9           0       -2.183167    0.329359    1.082688
      3          9           0       -1.684209   -1.480593   -0.003063
      4          9           0       -2.185143    0.334546   -1.079234
      5          6           0       -0.103372    0.271481   -0.000242
      6          6           0        0.917101   -0.624495   -0.000739
      7          6           0        2.292886   -0.139271    0.000144
      8          8           0        2.546061    1.072261    0.001670
      9          6           0        3.410455   -1.158345   -0.000264
     10          1           0        3.329614   -1.805318   -0.881877
     11          1           0        3.329219   -1.806402    0.880526
     12          1           0        4.380210   -0.657996    0.000295
     13          1           0        0.707332   -1.683948   -0.001777
     14          8           0        0.035917    1.582208    0.000652
     15          1           0        1.026762    1.740861    0.000952
 ---------------------------------------------------------------------
                    Distance matrix (angstroms):
                    1          2          3          4          5
     1  C    0.000000
     2  F    1.336091   0.000000
     3  F    1.337568   2.168811   0.000000
     4  F    1.335969   2.161930   2.168827   0.000000
     5  C    1.519003   2.345556   2.359835   2.345628   0.000000
     6  C    2.525517   3.419841   2.738563   3.421525   1.357991
     7  C    3.856054   4.628883   4.197194   4.630583   2.431207
     8  O    4.286721   4.907759   4.940878   4.908856   2.767806
     9  C    5.075094   5.888519   5.104847   5.890978   3.793598
    10  H    5.240400   6.229536   5.100607   5.918659   4.108013
    11  H    5.240170   5.915128   5.101112   6.231573   4.108045
    12  H    5.965165   6.724906   6.119956   6.727138   4.578913
    13  H    2.740925   3.685709   2.400172   3.688040   2.116825
    14  O    2.356363   2.768531   3.512777   2.766933   1.318107
    15  H    3.205844   3.669624   4.210362   3.668904   1.853721
                    6          7          8          9         10
     6  C    0.000000
     7  C    1.458844   0.000000
     8  O    2.352126   1.237704   0.000000
     9  C    2.549865   1.512439   2.392234   0.000000
    10  H    2.826830   2.151390   3.110478   1.096518   0.000000
    11  H    2.826985   2.151368   3.110052   1.096526   1.762403
    12  H    3.463271   2.150814   2.521486   1.091226   1.788387
    13  H    1.080021   2.213597   3.313250   2.753750   2.768695
    14  O    2.376137   2.838556   2.561420   4.347199   4.806520
    15  H    2.367898   2.266708   1.659909   3.753317   4.319480
                   11         12         13         14         15
    11  H    0.000000
    12  H    1.788358   0.000000
    13  H    2.769070   3.813479   0.000000
    14  O    4.806526   4.887883   3.334453   0.000000
    15  H    4.319495   4.123121   3.439675   1.003467   0.000000
 Stoichiometry    C5H5F3O2
 Framework group  C1[X(C5H5F3O2)]
 Deg. of freedom    39
 Full point group                 C1      NOp   1
 Largest Abelian subgroup         C1      NOp   1
 Largest concise Abelian subgroup C1      NOp   1
                         Standard orientation:                         
 ---------------------------------------------------------------------
 Center     Atomic      Atomic             Coordinates (Angstroms)
 Number     Number       Type             X           Y           Z
 ---------------------------------------------------------------------
      1          6           0        1.667535    0.202620   -0.000002
      2          9           0        2.306536   -0.250170    1.082495
      3          9           0        1.733911    1.538539   -0.002107
      4          9           0        2.308856   -0.253840   -1.079431
      5          6           0        0.226183   -0.276833   -0.000581
      6          6           0       -0.830142    0.576583   -0.000577
      7          6           0       -2.184891    0.035400   -0.000135
      8          8           0       -2.388218   -1.185489    0.000570
      9          6           0       -3.343274    1.007831    0.000030
     10          1           0       -3.288954    1.658157   -0.881149
     11          1           0       -3.288711    1.658089    0.881254
     12          1           0       -4.291716    0.468171    0.000174
     13          1           0       -0.663954    1.643741   -0.000898
     14          8           0        0.140711   -1.592166   -0.000563
     15          1           0       -0.842802   -1.791281   -0.000455
 ---------------------------------------------------------------------
 Rotational constants (GHZ):           2.7282312           0.7539241           0.6617991
 Standard basis: GTBas3 (6D, 7F)
 There are   335 symmetry adapted cartesian basis functions of A   symmetry.
 There are   305 symmetry adapted basis functions of A   symmetry.
   305 basis functions,   475 primitive gaussians,   335 cartesian basis functions
    39 alpha electrons       39 beta electrons
       nuclear repulsion energy       566.2960593746 Hartrees.
 NAtoms=   15 NActive=   15 NUniq=   15 SFac= 1.00D+00 NAtFMM=   60 NAOKFM=F Big=F
 Integral buffers will be    131072 words long.
 Raffenetti 2 integral format.
 Two-electron integral symmetry is turned on.
 One-electron integrals computed using PRISM.
 NBasis=   305 RedAO= T EigKep=  3.80D-04  NBF=   305
 NBsUse=   305 1.00D-06 EigRej= -1.00D+00 NBFU=   305
 Initial guess from the checkpoint file:  "/home/artemiy/opt/gaussian/scr/Gau-2016.chk"
 B after Tr=     0.000000    0.000000   -0.000000
         Rot=    1.000000   -0.000443   -0.000040   -0.000643 Ang=  -0.09 deg.
 ExpMin= 1.61D-01 ExpMax= 7.00D+03 ExpMxC= 1.05D+03 IAcc=2 IRadAn=         4 AccDes= 0.00D+00
 Harris functional with IExCor=  402 and IRadAn=       4 diagonalized for initial guess.
 HarFok:  IExCor=  402 AccDes= 0.00D+00 IRadAn=         4 IDoV= 1 UseB2=F ITyADJ=14
 ICtDFT=  3500011 ScaDFX=  1.000000  1.000000  1.000000  1.000000
 FoFCou: FMM=F IPFlag=           0 FMFlag=      100000 FMFlg1=           0
         NFxFlg=           0 DoJE=T BraDBF=F KetDBF=T FulRan=T
         wScrn=  0.000000 ICntrl=       500 IOpCl=  0 I1Cent=   200000004 NGrid=           0
         NMat0=    1 NMatS0=      1 NMatT0=    0 NMatD0=    1 NMtDS0=    0 NMtDT0=    0
 Petite list used in FoFCou.
 Keep R1 ints in memory in canonical form, NReq=1107802389.
 Requested convergence on RMS density matrix=1.00D-08 within 128 cycles.
 Requested convergence on MAX density matrix=1.00D-06.
 Requested convergence on             energy=1.00D-06.
 No special actions if energy rises.
 Integral accuracy reduced to 1.0D-05 until final iterations.
 Initial convergence to 1.0D-05 achieved.  Increase integral accuracy.
 SCF Done:  E(RB3LYP) =  -643.553904020     A.U. after   11 cycles
            NFock= 11  Conv=0.62D-08     -V/T= 2.0062
 Calling FoFJK, ICntrl=      2127 FMM=F ISym2X=0 I1Cent= 0 IOpClX= 0 NMat=1 NMatS=1 NMatT=0.
 ***** Axes restored to original set *****
 -------------------------------------------------------------------
 Center     Atomic                   Forces (Hartrees/Bohr)
 Number     Number              X              Y              Z
 -------------------------------------------------------------------
      1        6           0.001237213    0.000004309    0.000032953
      2        9          -0.000549972   -0.000834854   -0.000329168
      3        9          -0.001050687    0.001325014   -0.000000854
      4        9          -0.000567958   -0.000832211    0.000287206
      5        6           0.001956370   -0.000723287    0.000009562
      6        6           0.001434696    0.001685330   -0.000024388
      7        6          -0.001137297   -0.001142927    0.000047269
      8        8          -0.001331181    0.000659509   -0.000036641
      9        6          -0.000547440   -0.000081640   -0.000009258
     10        1           0.000019921    0.000267502    0.000493200
     11        1           0.000016456    0.000271929   -0.000495010
     12        1          -0.000999231    0.000230587   -0.000000544
     13        1          -0.000250090    0.000336512    0.000006746
     14        8           0.002228184   -0.000093354    0.000002194
     15        1          -0.000458985   -0.001072420    0.000016736
 -------------------------------------------------------------------
 Cartesian Forces:  Max     0.002228184 RMS     0.000804984

 GradGradGradGradGradGradGradGradGradGradGradGradGradGradGradGradGradGrad
 Berny optimization.
 Using GEDIIS/GDIIS optimizer.
 FormGI is forming the generalized inverse of G from B-inverse, IUseBI=4.
 Internal  Forces:  Max     0.004733155 RMS     0.001424776
 Search for a local minimum.
 Step number   3 out of a maximum of   68
 All quantities printed in internal units (Hartrees-Bohrs-Radians)
 Mixed Optimization -- RFO/linear search
 Update second derivatives using D2CorX and points    1    2    3
 DE= -3.23D-04 DEPred=-4.44D-04 R= 7.28D-01
 TightC=F SS=  1.41D+00  RLast= 4.80D-02 DXNew= 5.9342D-01 1.4399D-01
 Trust test= 7.28D-01 RLast= 4.80D-02 DXMaxT set to 3.53D-01
 ITU=  1  1  0
 Use linear search instead of GDIIS.
     Eigenvalues ---    0.00462   0.00793   0.01000   0.01306   0.01720
     Eigenvalues ---    0.02023   0.02749   0.02780   0.07328   0.07497
     Eigenvalues ---    0.10893   0.11088   0.13731   0.16000   0.16000
     Eigenvalues ---    0.16064   0.17561   0.19825   0.23405   0.25000
     Eigenvalues ---    0.25000   0.25000   0.25000   0.28341   0.30329
     Eigenvalues ---    0.33066   0.34225   0.35013   0.35240   0.36442
     Eigenvalues ---    0.37602   0.40065   0.50252   0.56630   0.57801
     Eigenvalues ---    0.57893   0.61322   0.75428   0.86694
 RFO step:  Lambda=-2.13359480D-04 EMin= 4.61579440D-03
 Quartic linear search produced a step of -0.19972.
 Iteration  1 RMS(Cart)=  0.01849357 RMS(Int)=  0.00010171
 Iteration  2 RMS(Cart)=  0.00015178 RMS(Int)=  0.00000214
 Iteration  3 RMS(Cart)=  0.00000000 RMS(Int)=  0.00000214
 Variable       Old X    -DE/DX   Delta X   Delta X   Delta X     New X
                                 (Linear)    (Quad)   (Total)
    R1        2.52485  -0.00031   0.00048  -0.00168  -0.00120   2.52365
    R2        2.52764  -0.00122   0.00079  -0.00373  -0.00294   2.52470
    R3        2.52462  -0.00027   0.00047  -0.00161  -0.00113   2.52348
    R4        2.87050   0.00099  -0.00094   0.00446   0.00352   2.87402
    R5        2.56623  -0.00357  -0.00176   0.00036  -0.00140   2.56483
    R6        2.49086  -0.00097  -0.00077   0.00087   0.00010   2.49096
    R7        2.75682  -0.00368   0.00132  -0.01055  -0.00923   2.74759
    R8        2.04094  -0.00028  -0.00017   0.00022   0.00004   2.04099
    R9        2.33892   0.00037  -0.00134   0.00463   0.00329   2.34221
   R10        2.85810  -0.00158  -0.00042  -0.00144  -0.00187   2.85623
   R11        2.07212  -0.00056  -0.00053   0.00076   0.00023   2.07235
   R12        2.07213  -0.00056  -0.00053   0.00075   0.00022   2.07236
   R13        2.06212  -0.00078  -0.00014  -0.00093  -0.00106   2.06105
   R14        1.89628  -0.00062  -0.00191   0.00384   0.00193   1.89820
    A1        1.89232  -0.00149   0.00116  -0.00670  -0.00555   1.88678
    A2        1.88519  -0.00081   0.00082  -0.00292  -0.00211   1.88309
    A3        1.92533   0.00113  -0.00065   0.00424   0.00358   1.92891
    A4        1.89247  -0.00150   0.00116  -0.00676  -0.00560   1.88687
    A5        1.94157   0.00139  -0.00173   0.00730   0.00557   1.94713
    A6        1.92554   0.00113  -0.00064   0.00419   0.00354   1.92908
    A7        2.14092   0.00204   0.00072   0.00469   0.00541   2.14633
    A8        1.95681   0.00226   0.00183   0.00149   0.00331   1.96013
    A9        2.18545  -0.00430  -0.00254  -0.00618  -0.00872   2.17673
   A10        2.08200  -0.00473  -0.00261  -0.00919  -0.01180   2.07020
   A11        2.09585   0.00205   0.00204   0.00079   0.00283   2.09868
   A12        2.10533   0.00268   0.00057   0.00839   0.00896   2.11430
   A13        2.11587  -0.00220  -0.00023  -0.00597  -0.00619   2.10968
   A14        2.06319   0.00104  -0.00202   0.00945   0.00743   2.07062
   A15        2.10412   0.00116   0.00225  -0.00348  -0.00123   2.10289
   A16        1.92122   0.00021  -0.00048   0.00257   0.00209   1.92331
   A17        1.92118   0.00020  -0.00050   0.00258   0.00207   1.92326
   A18        1.92593  -0.00101   0.00067  -0.00646  -0.00578   1.92015
   A19        1.86675  -0.00006   0.00075  -0.00195  -0.00120   1.86555
   A20        1.91396   0.00034  -0.00022   0.00173   0.00150   1.91546
   A21        1.91391   0.00035  -0.00023   0.00173   0.00151   1.91542
   A22        1.83544  -0.00187  -0.00612   0.00543  -0.00070   1.83474
    D1        2.09861  -0.00021  -0.00053  -0.00199  -0.00252   2.09609
    D2       -1.04257  -0.00020  -0.00049  -0.00200  -0.00249  -1.04506
    D3       -0.00208  -0.00000  -0.00042  -0.00119  -0.00161  -0.00370
    D4        3.13992  -0.00000  -0.00039  -0.00120  -0.00158   3.13834
    D5       -2.10310   0.00021  -0.00032  -0.00028  -0.00061  -2.10371
    D6        1.03891   0.00022  -0.00029  -0.00029  -0.00058   1.03833
    D7       -3.14079  -0.00002   0.00002  -0.00060  -0.00058  -3.14137
    D8        0.00080  -0.00002   0.00000  -0.00049  -0.00048   0.00032
    D9        0.00033  -0.00002  -0.00003  -0.00059  -0.00061  -0.00028
   D10       -3.14127  -0.00002  -0.00004  -0.00048  -0.00051   3.14141
   D11        3.14107  -0.00002  -0.00005  -0.00035  -0.00041   3.14066
   D12       -0.00010  -0.00002  -0.00001  -0.00036  -0.00038  -0.00047
   D13        0.00032  -0.00002  -0.00015  -0.00129  -0.00143  -0.00112
   D14        3.14146  -0.00000  -0.00000   0.00008   0.00007   3.14154
   D15       -3.14128  -0.00002  -0.00014  -0.00140  -0.00153   3.14038
   D16       -0.00013  -0.00000   0.00001  -0.00003  -0.00003  -0.00015
   D17        1.02653   0.00008   0.00009  -0.00031  -0.00022   1.02631
   D18       -1.02699  -0.00010  -0.00024  -0.00103  -0.00128  -1.02827
   D19        3.14141  -0.00001  -0.00007  -0.00068  -0.00075   3.14066
   D20       -2.11551   0.00010   0.00023   0.00105   0.00128  -2.11423
   D21        2.11416  -0.00008  -0.00010   0.00032   0.00022   2.11438
   D22       -0.00063   0.00001   0.00007   0.00068   0.00075   0.00012
         Item               Value     Threshold  Converged?
 Maximum Force            0.004733     0.000450     NO 
 RMS     Force            0.001425     0.000300     NO 
 Maximum Displacement     0.051313     0.001800     NO 
 RMS     Displacement     0.018523     0.001200     NO 
 Predicted change in Energy=-1.280826D-04
 GradGradGradGradGradGradGradGradGradGradGradGradGradGradGradGradGradGrad

                          Input orientation:                          
 ---------------------------------------------------------------------
 Center     Atomic      Atomic             Coordinates (Angstroms)
 Number     Number       Type             X           Y           Z
 ---------------------------------------------------------------------
      1          6           0       -1.566358   -0.142293   -0.000308
      2          9           0       -2.184457    0.337525    1.081899
      3          9           0       -1.709207   -1.470636   -0.005268
      4          9           0       -2.186701    0.345915   -1.077359
      5          6           0       -0.100271    0.262215   -0.000135
      6          6           0        0.914681   -0.638895   -0.000333
      7          6           0        2.282801   -0.146707    0.000140
      8          8           0        2.521191    1.069598   -0.000475
      9          6           0        3.413487   -1.149721   -0.000006
     10          1           0        3.343131   -1.799450   -0.880642
     11          1           0        3.343867   -1.798802    0.881171
     12          1           0        4.372814   -0.630842   -0.000568
     13          1           0        0.702053   -1.697802   -0.000924
     14          8           0        0.057682    1.570875    0.000771
     15          1           0        1.051796    1.714852    0.001698
 ---------------------------------------------------------------------
                    Distance matrix (angstroms):
                    1          2          3          4          5
     1  C    0.000000
     2  F    1.335456   0.000000
     3  F    1.336012   2.162693   0.000000
     4  F    1.335369   2.159275   2.162692   0.000000
     5  C    1.520867   2.349531   2.364630   2.349597   0.000000
     6  C    2.530251   3.424804   2.752564   3.427595   1.357250
     7  C    3.849162   4.621804   4.205823   4.623865   2.417902
     8  O    4.263419   4.883706   4.934479   4.883405   2.742979
     9  C    5.080725   5.892317   5.132739   5.895737   3.786827
    10  H    5.255877   6.242793   5.138144   5.934672   4.108866
    11  H    5.256552   5.930139   5.140722   6.246826   4.109328
    12  H    5.959232   6.716195   6.139728   6.718688   4.561364
    13  H    2.750509   3.694185   2.421941   3.698701   2.117874
    14  O    2.360604   2.777982   3.517489   2.774914   1.318159
    15  H    3.209941   3.679293   4.215510   3.677801   1.854027
                    6          7          8          9         10
     6  C    0.000000
     7  C    1.453960   0.000000
     8  O    2.345169   1.239447   0.000000
     9  C    2.550485   1.511452   2.391980   0.000000
    10  H    2.831819   2.152124   3.111546   1.096639   0.000000
    11  H    2.832557   2.152091   3.111561   1.096643   1.761814
    12  H    3.458142   2.145354   2.513962   1.090662   1.788973
    13  H    1.080044   2.214647   3.311762   2.766273   2.785593
    14  O    2.370133   2.810915   2.513992   4.320077   4.788544
    15  H    2.357738   2.231765   1.604830   3.712595   4.287080
                   11         12         13         14         15
    11  H    0.000000
    12  H    1.788945   0.000000
    13  H    2.787018   3.822681   0.000000
    14  O    4.788407   4.844370   3.331587   0.000000
    15  H    4.286353   4.065888   3.430529   1.004486   0.000000
 Stoichiometry    C5H5F3O2
 Framework group  C1[X(C5H5F3O2)]
 Deg. of freedom    39
 Full point group                 C1      NOp   1
 Largest Abelian subgroup         C1      NOp   1
 Largest concise Abelian subgroup C1      NOp   1
                         Standard orientation:                         
 ---------------------------------------------------------------------
 Center     Atomic      Atomic             Coordinates (Angstroms)
 Number     Number       Type             X           Y           Z
 ---------------------------------------------------------------------
      1          6           0        1.667125    0.197851   -0.000115
      2          9           0        2.304536   -0.256245    1.081988
      3          9           0        1.754835    1.530973   -0.004714
      4          9           0        2.307186   -0.263955   -1.077271
      5          6           0        0.219050   -0.267031   -0.000107
      6          6           0       -0.832354    0.591269   -0.000104
      7          6           0       -2.178914    0.042840    0.000184
      8          8           0       -2.366723   -1.182295   -0.000766
      9          6           0       -3.350172    0.998163    0.000261
     10          1           0       -3.306762    1.650485   -0.880198
     11          1           0       -3.307520    1.649333    0.881615
     12          1           0       -4.287186    0.439996   -0.000476
     13          1           0       -0.663765    1.658074   -0.000403
     14          8           0        0.115433   -1.581111    0.000443
     15          1           0       -0.871865   -1.766137    0.001293
 ---------------------------------------------------------------------
 Rotational constants (GHZ):           2.7474567           0.7542918           0.6630172
 Standard basis: GTBas3 (6D, 7F)
 There are   335 symmetry adapted cartesian basis functions of A   symmetry.
 There are   305 symmetry adapted basis functions of A   symmetry.
   305 basis functions,   475 primitive gaussians,   335 cartesian basis functions
    39 alpha electrons       39 beta electrons
       nuclear repulsion energy       566.9464284331 Hartrees.
 NAtoms=   15 NActive=   15 NUniq=   15 SFac= 1.00D+00 NAtFMM=   60 NAOKFM=F Big=F
 Integral buffers will be    131072 words long.
 Raffenetti 2 integral format.
 Two-electron integral symmetry is turned on.
 One-electron integrals computed using PRISM.
 NBasis=   305 RedAO= T EigKep=  3.78D-04  NBF=   305
 NBsUse=   305 1.00D-06 EigRej= -1.00D+00 NBFU=   305
 Initial guess from the checkpoint file:  "/home/artemiy/opt/gaussian/scr/Gau-2016.chk"
 B after Tr=     0.000000    0.000000    0.000000
         Rot=    0.999999    0.000395    0.000014    0.000927 Ang=   0.12 deg.
 ExpMin= 1.61D-01 ExpMax= 7.00D+03 ExpMxC= 1.05D+03 IAcc=2 IRadAn=         4 AccDes= 0.00D+00
 Harris functional with IExCor=  402 and IRadAn=       4 diagonalized for initial guess.
 HarFok:  IExCor=  402 AccDes= 0.00D+00 IRadAn=         4 IDoV= 1 UseB2=F ITyADJ=14
 ICtDFT=  3500011 ScaDFX=  1.000000  1.000000  1.000000  1.000000
 FoFCou: FMM=F IPFlag=           0 FMFlag=      100000 FMFlg1=           0
         NFxFlg=           0 DoJE=T BraDBF=F KetDBF=T FulRan=T
         wScrn=  0.000000 ICntrl=       500 IOpCl=  0 I1Cent=   200000004 NGrid=           0
         NMat0=    1 NMatS0=      1 NMatT0=    0 NMatD0=    1 NMtDS0=    0 NMtDT0=    0
 Petite list used in FoFCou.
 Keep R1 ints in memory in canonical form, NReq=1107802389.
 Requested convergence on RMS density matrix=1.00D-08 within 128 cycles.
 Requested convergence on MAX density matrix=1.00D-06.
 Requested convergence on             energy=1.00D-06.
 No special actions if energy rises.
 Integral accuracy reduced to 1.0D-05 until final iterations.
 Initial convergence to 1.0D-05 achieved.  Increase integral accuracy.
 SCF Done:  E(RB3LYP) =  -643.553970456     A.U. after   11 cycles
            NFock= 11  Conv=0.55D-08     -V/T= 2.0062
 Calling FoFJK, ICntrl=      2127 FMM=F ISym2X=0 I1Cent= 0 IOpClX= 0 NMat=1 NMatS=1 NMatT=0.
 ***** Axes restored to original set *****
 -------------------------------------------------------------------
 Center     Atomic                   Forces (Hartrees/Bohr)
 Number     Number              X              Y              Z
 -------------------------------------------------------------------
      1        6          -0.000278091   -0.000011132   -0.000000595
      2        9           0.000123043    0.000360743    0.000606179
      3        9           0.000740279   -0.000621456    0.000005662
      4        9           0.000124315    0.000361490   -0.000610647
      5        6           0.000129892    0.002803067    0.000007165
      6        6           0.000495289   -0.000279436    0.000034601
      7        6          -0.000214422   -0.001121632   -0.000148343
      8        8           0.001973012    0.000155328    0.000106128
      9        6          -0.000617628   -0.000047234    0.000030027
     10        1          -0.000021461    0.000506241    0.000480765
     11        1          -0.000015638    0.000498628   -0.000480586
     12        1          -0.000406406   -0.000051673    0.000001015
     13        1           0.000070056    0.000293823    0.000003545
     14        8          -0.003921721   -0.001802360    0.000035738
     15        1           0.001819481   -0.001044398   -0.000070654
 -------------------------------------------------------------------
 Cartesian Forces:  Max     0.003921721 RMS     0.000944501

 GradGradGradGradGradGradGradGradGradGradGradGradGradGradGradGradGradGrad
 Berny optimization.
 Using GEDIIS/GDIIS optimizer.
 FormGI is forming the generalized inverse of G from B-inverse, IUseBI=4.
 Internal  Forces:  Max     0.003473790 RMS     0.001052005
 Search for a local minimum.
 Step number   4 out of a maximum of   68
 All quantities printed in internal units (Hartrees-Bohrs-Radians)
 Mixed Optimization -- RFO/linear search
 Update second derivatives using D2CorX and points    1    2    3    4
 DE= -6.64D-05 DEPred=-1.28D-04 R= 5.19D-01
 TightC=F SS=  1.41D+00  RLast= 2.77D-02 DXNew= 5.9342D-01 8.3214D-02
 Trust test= 5.19D-01 RLast= 2.77D-02 DXMaxT set to 3.53D-01
 ITU=  1  1  1  0
 Use linear search instead of GDIIS.
     Eigenvalues ---    0.00461   0.00793   0.01000   0.01306   0.01710
     Eigenvalues ---    0.02021   0.02750   0.02781   0.07358   0.07490
     Eigenvalues ---    0.10813   0.11024   0.11830   0.16000   0.16001
     Eigenvalues ---    0.16063   0.18203   0.21404   0.23479   0.25000
     Eigenvalues ---    0.25000   0.25000   0.25852   0.29446   0.33116
     Eigenvalues ---    0.33349   0.35013   0.35226   0.35973   0.36750
     Eigenvalues ---    0.36948   0.42180   0.51336   0.56056   0.57882
     Eigenvalues ---    0.57949   0.71614   0.81807   0.87614
 RFO step:  Lambda=-5.84534544D-05 EMin= 4.61454045D-03
 Quartic linear search produced a step of -0.32533.
 Iteration  1 RMS(Cart)=  0.00591290 RMS(Int)=  0.00001435
 Iteration  2 RMS(Cart)=  0.00002028 RMS(Int)=  0.00000112
 Iteration  3 RMS(Cart)=  0.00000000 RMS(Int)=  0.00000112
 Variable       Old X    -DE/DX   Delta X   Delta X   Delta X     New X
                                 (Linear)    (Quad)   (Total)
    R1        2.52365   0.00056   0.00039  -0.00018   0.00021   2.52386
    R2        2.52470   0.00054   0.00096  -0.00131  -0.00035   2.52434
    R3        2.52348   0.00057   0.00037  -0.00013   0.00023   2.52372
    R4        2.87402  -0.00071  -0.00115   0.00093  -0.00022   2.87381
    R5        2.56483   0.00098   0.00046   0.00012   0.00057   2.56540
    R6        2.49096  -0.00308  -0.00003  -0.00289  -0.00292   2.48804
    R7        2.74759   0.00064   0.00300  -0.00498  -0.00198   2.74561
    R8        2.04099  -0.00030  -0.00001  -0.00048  -0.00049   2.04049
    R9        2.34221   0.00053  -0.00107   0.00236   0.00129   2.34351
   R10        2.85623  -0.00139   0.00061  -0.00382  -0.00322   2.85301
   R11        2.07235  -0.00068  -0.00007  -0.00104  -0.00112   2.07123
   R12        2.07236  -0.00068  -0.00007  -0.00104  -0.00111   2.07124
   R13        2.06105  -0.00038   0.00035  -0.00136  -0.00101   2.06004
[...]
    15  H   -0.003638   0.052124   0.000866  -0.000002  -0.000001  -0.000196
              13         14         15
     1  C   -0.000946  -0.053412   0.004492
     2  F   -0.000073   0.001956  -0.000395
     3  F   -0.001256   0.003506  -0.000358
     4  F   -0.000070   0.001917  -0.000397
     5  C   -0.008566   0.382860  -0.019700
     6  C    0.392334  -0.074077  -0.011677
     7  C   -0.022077  -0.007623  -0.003638
     8  O    0.003466  -0.050372   0.052124
     9  C    0.001162  -0.000587   0.000866
    10  H   -0.000433   0.000104  -0.000002
    11  H   -0.000434   0.000104  -0.000001
    12  H    0.000119   0.000403  -0.000196
    13  H    0.402872   0.002607   0.000333
    14  O    0.002607   8.074600   0.292508
    15  H    0.000333   0.292508   0.232865
 Mulliken charges:
               1
     1  C    0.719883
     2  F   -0.267546
     3  F   -0.294750
     4  F   -0.267479
     5  C    0.409002
     6  C   -0.347742
     7  C    0.547105
     8  O   -0.610043
     9  C   -0.629286
    10  H    0.207785
    11  H    0.207796
    12  H    0.215630
    13  H    0.230963
    14  O   -0.574494
    15  H    0.453174
 Sum of Mulliken charges =  -0.00000
 Mulliken charges with hydrogens summed into heavy atoms:
               1
     1  C    0.719883
     2  F   -0.267546
     3  F   -0.294750
     4  F   -0.267479
     5  C    0.409002
     6  C   -0.116779
     7  C    0.547105
     8  O   -0.610043
     9  C    0.001925
    14  O   -0.121319
 Electronic spatial extent (au):  <R**2>=           1636.1325
 Charge=             -0.0000 electrons
 Dipole moment (field-independent basis, Debye):
    X=             -2.4243    Y=              2.9109    Z=             -0.0002  Tot=              3.7882
 Quadrupole moment (field-independent basis, Debye-Ang):
   XX=            -55.9524   YY=            -57.7856   ZZ=            -56.7507
   XY=             -6.2767   XZ=             -0.0019   YZ=             -0.0011
 Traceless Quadrupole moment (field-independent basis, Debye-Ang):
   XX=              0.8772   YY=             -0.9560   ZZ=              0.0789
   XY=             -6.2767   XZ=             -0.0019   YZ=             -0.0011
 Octapole moment (field-independent basis, Debye-Ang**2):
  XXX=             17.3045  YYY=              1.6820  ZZZ=             -0.0004  XYY=              9.3579
  XXY=             19.6480  XXZ=              0.0024  XZZ=              8.3344  YZZ=              0.4270
  YYZ=              0.0064  XYZ=              0.0002
 Hexadecapole moment (field-independent basis, Debye-Ang**3):
 XXXX=          -1365.9121 YYYY=           -335.6367 ZZZZ=           -123.8791 XXXY=            -37.1632
 XXXZ=             -0.0029 YYYX=              9.6941 YYYZ=             -0.0061 ZZZX=             -0.0129
 ZZZY=              0.0013 XXYY=           -305.3500 XXZZ=           -259.9785 YYZZ=            -76.1966
 XXYZ=             -0.0027 YYXZ=              0.0036 ZZXY=              3.7811
 N-N= 5.670044883936D+02 E-N=-2.650965520229D+03  KE= 6.399848846891D+02
 1\1\GINC-ARTEMIY-VIRTUALBOX\SP\RHF\GFHFB2\C5H5F3O2\ARTEMIY\17-Nov-2021
 \0\\#N Geom=AllCheck Guess=TCheck SCRF=Check HF/GFHFB2 SCF=Tight\\Titl
 e Card Required\\0,1\C,0,-1.5642963032,-0.1441395853,-0.0001323085\F,0
 ,-2.1848084244,0.3348782142,1.0816457248\F,0,-1.6964379354,-1.47413805
 99,-0.0024708456\F,0,-2.1857473084,0.3388241212,-1.0795362569\C,0,-0.1
 008640413,0.2677081095,0.0000988883\C,0,0.9152779345,-0.6329530425,-0.
 0006771921\C,0,2.2834098956,-0.1451250888,-0.0001160424\O,0,2.52927774
 18,1.0705391712,0.0010805649\C,0,3.4084261397,-1.1509338958,-0.0004114
 214\H,0,3.3364483311,-1.7984088062,-0.8811715016\H,0,3.3361406493,-1.7
 992598063,0.8797034153\H,0,4.3684817365,-0.6345910559,0.0000291926\H,0
 ,0.7021833502,-1.691238951,-0.0017360243\O,0,0.0550341343,1.5738240072
 ,0.0014208181\H,0,1.0539830028,1.7108459445,0.0019344034\\Version=ES64
 L-G16RevA.03\State=1-A\HF=-640.5943817\RMSD=7.685e-09\Dipole=0.9065243
 ,-1.1830132,-0.00101\Quadrupole=0.2713028,-0.3299386,0.0586358,-4.7064
 789,-0.0024399,0.0001273\PG=C01 [X(C5H5F3O2)]\\@


 THE TRULY SUCCESSFUL PERFORMANCE OF RESEARCHES IN
 INORGANIC CHEMISTRY IS POSSIBLE ONLY TO ONE WHO IS NOT
 ONLY A THEORETICAL CHEMIST, BUT ALSO AN ACCOMPLISHED
 ANALYST AND, MOREOVER, NOT MERELY A PRACTICALLY TRAINED,
 MECHANICAL WORKER, BUT A THINKING CREATIVE ARTIST.
   --  CLEMENS WINKLER, BER. 33, 1697(1900)
 Diagonal vibrational polarizability:
        0.0000000       0.0000000       0.0000000
 
 Temperature=              298.150000 Pressure=                      1.000000
 E(ZPE)=                     0.098452 E(Thermal)=                    0.108203
 E(QCISD(T))=             -641.874460 E(Empiric)=                   -0.201463
 E(CCSD(T))=                -0.201463 E(Empiric)=                   -0.048965
 DE(Plus)=                  -0.449892 DE(2DF)=                      -0.749600
 E(Delta-G3XP)=             -0.070918 DE(HF)=                     -643.296846
 G4(0 K)=                 -643.287096 G4 Energy=                  -643.286151
 G4 Enthalpy=             -643.333098 G4 Free Energy=    
 1\1\GINC-ARTEMIY-VIRTUALBOX\Mixed\G4\G4\C5H5F3O2\ARTEMIY\17-Nov-2021\0
 \\# g4 geom=gic\\Title Card Required\\0,1\C,0,-1.5642963032,-0.1441395
 853,-0.0001323085\F,0,-2.1848084244,0.3348782142,1.0816457248\F,0,-1.6
 964379354,-1.4741380599,-0.0024708456\F,0,-2.1857473084,0.3388241212,-
 1.0795362569\C,0,-0.1008640413,0.2677081095,0.0000988883\C,0,0.9152779
 345,-0.6329530425,-0.0006771921\C,0,2.2834098956,-0.1451250888,-0.0001
 160424\O,0,2.5292777418,1.0705391712,0.0010805649\C,0,3.4084261397,-1.
 1509338958,-0.0004114214\H,0,3.3364483311,-1.7984088062,-0.8811715016\
 H,0,3.3361406493,-1.7992598063,0.8797034153\H,0,4.3684817365,-0.634591
 0559,0.0000291926\H,0,0.7021833502,-1.691238951,-0.0017360243\O,0,0.05
 50341343,1.5738240072,0.0014208181\H,0,1.0539830028,1.7108459445,0.001
 9344034\\Version=ES64L-G16RevA.03\State=1-A\MP2/GTBas1=-641.7905583\MP
 4/GTBas1=-641.8855972\CCSD(T)/G3Bas1=-641.87446\MP2/GTBas2=-641.835642
 1\MP4/GTBas2=-641.9345619\MP2/GTBas3=-642.2137825\MP4/GTBas3=-642.3354
 895\HF/GTLargeXP=-640.5263145\MP2/GTLargeXP=-643.0084667\HF/GFHFB1=-64
 0.5826832\HF/GFHFB2=-640.5943817\G4=-643.2968463\FreqCoord=-2.95609159
 08,-0.2723843398,-0.0002500269,-4.1286895568,0.63282811,2.0440141836,-
 3.2058030853,-2.785717203,-0.0046692215,-4.1304637904,0.6402847934,-2.
 0400278672,-0.1906054139,0.5058950084,0.0001868719,1.7296246241,-1.196
 1079001,-0.0012797076,4.3150193327,-0.2742466716,-0.0002192883,4.77964
 22249,2.0230258391,0.0020419717,6.4409919199,-2.1749498505,-0.00077747
 38,6.3049735745,-3.3985001037,-1.6651728069,6.3043921403,-3.4001082608
 ,1.6623985257,8.2552340621,-1.1992032967,0.000055166,1.3269342212,-3.1
 959784286,-0.0032806105,0.1039994413,2.9740963419,0.0026849571,1.99173
 92153,3.2330302765,0.0036554926\PG=C01 [X(C5H5F3O2)]\NImag=0\\0.596530
 99,0.01920911,0.55792394,0.00008164,0.00000033,0.51042152,-0.14794619,
 0.03080675,0.09169286,0.14189769,0.03490686,-0.09432331,-0.04943555,-0
 .05787809,0.12121062,0.09058220,-0.04509322,-0.19288907,-0.12486748,0.
 09622123,0.29501979,-0.09456445,-0.04141693,-0.00007342,0.01202687,0.0
 2721689,0.00856480,0.08345233,-0.05147582,-0.26671256,-0.00032638,0.01
 564390,-0.05052376,-0.03730415,0.03021170,0.40201910,-0.00008805,-0.00
 032801,-0.07391617,0.00481674,-0.04933228,-0.00723046,0.00005884,0.000
 57010,0.07956541,-0.14814385,0.03119230,-0.09165593,0.02276285,-0.0039
 5908,0.00758577,0.01201495,0.01569564,-0.00477661,0.14215037,0.0353140
 5,-0.09469387,0.04981269,-0.00393565,0.01541912,-0.00435015,0.02729098
 ,-0.05083912,0.04915055,-0.05843836,0.12194381,-0.09055560,0.04546455,
 -0.19246907,-0.00769615,0.00471795,-0.08445110,-0.00848079,0.03713200,
 -0.00690252,0.12484147,-0.09684801,0.29418559,-0.19624338,-0.02686508,
 -0.00001760,-0.02356032,0.00059337,0.01541887,0.00289221,0.00148015,0.
 00000568,-0.02359704,0.00064973,-0.01539947,0.71490799,-0.02648683,-0.
 06878628,0.00000754,0.01883534,0.00358833,-0.01381808,-0.03606686,-0.0
 3706052,-0.00006424,0.01899982,0.00352025,0.01387136,-0.08100479,0.755
 01589,-0.00001431,0.00000441,-0.06595828,0.03989982,-0.00339753,-0.013
 20158,-0.00005812,-0.00007503,0.00784635,-0.03983162,0.00346491,-0.013
 09502,-0.00007044,0.00054048,0.19765243,-0.00351017,0.02066615,0.00001
 517,-0.00722842,-0.00020108,0.00399260,-0.00580851,-0.00170383,-0.0000
 0062,-0.00723588,-0.00018698,-0.00399085,-0.30505978,0.12171099,0.0001
 0739,0.63672950,-0.00153557,0.01340511,0.00000394,-0.00447548,-0.00019
 190,0.00309541,0.00119089,-0.00091540,-0.00000003,-0.00448850,-0.00017
 924,-0.00309657,0.16077838,-0.24779736,-0.00017125,-0.05702241,0.78051
 889,0.00000715,-0.00000227,0.00964269,-0.00119191,0.00040194,0.0007133
 6,-0.00000068,0.00000283,-0.00030998,0.00118070,-0.00040392,0.00070222
 ,0.00013951,-0.00016816,-0.06027010,-0.00000883,0.00065695,0.09660528,
 -0.01593643,0.00134331,-0.00000240,0.00398166,-0.00091793,-0.00133397,
 0.00352329,0.00159489,0.00000140,0.00397493,-0.00092325,0.00132872,-0.
 04889043,0.04603453,0.00004596,-0.21322752,-0.04554441,-0.00005158,0.5
 7203468,-0.00358047,-0.00496583,-0.00001618,0.00318706,-0.00038925,-0.
 00199284,-0.00057893,0.00063771,-0.00000014,0.00318490,-0.00039704,0.0
 0199101,0.01145540,0.05546390,0.00004839,0.00206912,-0.12104028,-0.000
 03763,0.03944151,0.83412532,-0.00000757,-0.00001552,0.00994807,-0.0029
 8359,0.00013279,0.00048589,0.00000014,0.00000244,0.00016508,0.00298965
 ,-0.00013682,0.00048418,0.00000037,0.00005421,0.00322022,-0.00001421,-
 0.00004729,-0.07495608,0.00010994,0.00055327,0.22546068,0.00518396,-0.
 00033211,-0.00000137,-0.00128798,-0.00000977,0.00041655,-0.00196762,-0
 .00115787,-0.00000170,-0.00128647,-0.00000912,-0.00041425,0.00227133,0
 .01055144,0.00001052,-0.00449645,-0.05165746,-0.00005206,-0.13743490,-
 0.10452448,-0.00010749,0.16671155,0.00658123,-0.00102604,0.00000058,-0
 .00227164,0.00097148,0.00124435,-0.00073814,0.00140336,0.00000305,-0.0
 0227088,0.00097725,-0.00124208,0.01540078,-0.04977401,-0.00004616,-0.0
 7068737,-0.02838845,-0.00005716,-0.06945361,-0.58175862,-0.00048091,0.
 12462411,0.67680446,0.00000824,-0.00000017,-0.00069649,0.00016330,0.00
 003584,0.00006537,-0.00000046,0.00000205,-0.00022157,-0.00016861,-0.00
 003363,0.00006292,0.00001740,-0.00005426,-0.00187554,-0.00007376,-0.00
 005052,0.02027462,-0.00007050,-0.00049174,-0.07173866,0.00014357,0.000
 59609,0.03896817,0.00143229,0.00138561,0.00000253,-0.00081349,0.000015
 92,0.00048881,-0.00022743,-0.00027909,-0.00000042,-0.00081359,0.000017
 62,-0.00048794,-0.00452787,-0.00494757,-0.00000679,-0.02403130,0.02179
 140,0.00000035,-0.16945295,0.05149422,0.00001582,0.01660854,0.00406678
 ,0.00000045,0.53892458,-0.00127614,0.00045943,0.00000292,-0.00003989,0
 .00000690,0.00019039,0.00031151,0.00046603,0.00000039,-0.00003981,0.00
 000750,-0.00019041,-0.00522594,-0.00021104,-0.00000304,-0.00177646,0.0
 1031780,-0.00000335,0.04457949,-0.11203874,-0.00000961,0.03079162,-0.0
 5221295,-0.00004873,0.06811354,0.52966857,0.00000094,0.00000441,-0.002
 80690,0.00073262,-0.00012623,-0.00018095,-0.00000048,-0.00000111,0.000
 13502,-0.00073305,0.00012706,-0.00018003,-0.00000343,-0.00000716,0.002
 70253,-0.00001019,0.00000222,0.01538657,0.00000191,0.00000259,-0.08589
 051,0.00002499,-0.00006340,0.02071906,0.00003602,0.00004467,0.52077312
 ,0.00028170,0.00017544,0.00060739,-0.00020543,-0.00000566,0.00001987,-
 0.00006322,-0.00017602,-0.00004227,0.00008145,-0.00004351,0.00001616,0
 .00081319,-0.00072578,-0.00027339,-0.00166847,-0.00007066,-0.00270740,
 0.00533537,0.01244219,0.02303308,-0.00220981,0.00262268,-0.00221625,-0
 .04928512,-0.01027819,-0.01244304,0.04737071,0.00016230,0.00005760,-0.
 00044267,0.00005456,-0.00000316,0.00000965,-0.00000239,-0.00002180,0.0
 0004173,-0.00011883,0.00001325,0.00000294,0.00014390,-0.00092722,0.000
 50242,-0.00072389,0.00080606,0.00206617,-0.00391887,-0.01503680,-0.018
 65009,0.00467256,-0.00310976,0.00222732,-0.01166074,-0.13254571,-0.130
 06654,0.01016016,0.14587143,0.00011031,-0.00013433,0.00006091,-0.00003
 997,0.00003400,0.00003000,-0.00001595,0.00006344,0.00000134,-0.0000051
 5,0.00001988,-0.00001217,0.00028511,-0.00014393,0.00019143,-0.00024318
 ,-0.00036494,0.00056582,-0.00049233,0.00148698,0.00100123,0.00015541,0
 .00105913,-0.00072228,-0.01444993,-0.12767698,-0.21332346,0.01623450,0
 .13926400,0.23307440,0.00028214,0.00017679,-0.00060754,0.00008136,-0.0
 0004332,-0.00001626,-0.00006344,-0.00017634,0.00004188,-0.00020540,-0.
 00000550,-0.00001961,0.00081364,-0.00072775,0.00027259,-0.00167173,-0.
 00007321,0.00270814,0.00533811,0.01247011,-0.02301780,-0.00220885,0.00
 261312,0.00221957,-0.04928413,-0.01033336,0.01248910,-0.00033467,0.000
 82534,-0.00174789,0.04737944,0.00016264,0.00005669,0.00044319,-0.00011
 907,0.00001317,-0.00000281,-0.00000233,-0.00002168,-0.00004179,0.00005
 450,-0.00000316,-0.00000981,0.00014436,-0.00092670,-0.00050455,-0.0007
 2372,0.00080869,-0.00206651,-0.00392197,-0.01505445,0.01863256,0.00467
 001,-0.00310052,-0.00223322,-0.01172260,-0.13279104,0.13014144,0.00083
 055,0.01185795,-0.01622928,0.01022779,0.14613143,-0.00011057,0.0001340
 9,0.00006158,0.00000517,-0.00001982,-0.00001226,0.00001604,-0.00006330
 ,0.00000113,0.00004007,-0.00003410,0.00002986,-0.00028495,0.00014342,0
 .00019154,0.00024274,0.00036454,0.00056613,0.00048825,-0.00150024,0.00
 101083,-0.00015049,-0.00105998,-0.00072644,0.01449924,0.12774849,-0.21
 306137,0.00175717,0.01626048,-0.02145643,-0.01629320,-0.13934023,0.232
 79092,0.00044911,0.00036713,0.00000064,-0.00027424,0.00002272,0.000172
 65,-0.00008889,-0.00003838,-0.00000008,-0.00027438,0.00002337,-0.00017
 240,-0.00101136,-0.00188408,-0.00000249,-0.00241536,0.00486748,0.00000
 218,-0.02533290,-0.01554561,-0.00001286,0.00567372,-0.00141743,-0.0000
 0060,-0.25932323,-0.11390211,-0.00009550,0.00026879,0.00066507,0.00009
 521,0.00025772,0.00065923,-0.00009532,0.28183135,-0.00008632,-0.000400
 10,-0.00000037,0.00012544,0.00002222,-0.00009058,0.00000517,0.00006369
 ,0.00000008,0.00012568,0.00002191,0.00009057,0.00119395,0.00087817,0.0
 0000066,0.00237392,-0.00358159,-0.00000300,0.02323184,0.01186539,0.000
 01058,-0.00259564,0.00215341,0.00000280,-0.11984305,-0.11173311,-0.000
 05592,-0.01501062,-0.00803671,0.00204821,-0.01503314,-0.00804580,-0.00
 206149,0.12524231,0.11678365,-0.00000028,0.00000012,-0.00030841,0.0001
 0318,-0.00000613,-0.00002210,0.,0.00000007,0.00002544,-0.00010301,0.00
 000630,-0.00002190,-0.00000016,0.00000051,0.00061060,0.00000119,-0.000
 00264,0.00211465,0.00000441,0.00000443,-0.00134327,0.00000017,0.000001
 50,-0.00113771,-0.00009882,-0.00005518,-0.04740517,-0.02364093,-0.0112
 9681,0.00105091,0.02362645,0.01128971,0.00106797,0.00010727,0.00005807
 ,0.04580130,0.00085337,0.00307378,0.00000546,0.00017512,-0.00054279,-0
 .00038027,-0.00295680,-0.00191037,-0.00000378,0.00017692,-0.00054469,0
 .00037890,0.01058403,0.02390468,0.00002346,-0.06678719,-0.05866602,-0.
 00005959,0.00400821,-0.02755676,-0.00002505,-0.00685100,-0.00377751,-0
 .00000579,0.00050522,0.00056183,0.00000001,-0.00048091,0.00013325,0.00
 028050,-0.00048022,0.00013323,-0.00028014,0.00042577,0.00013440,0.0000
 0043,0.06728205,-0.00050402,-0.00273646,0.00000003,0.00005267,0.000314
 31,0.00017356,-0.00243202,0.00190510,0.00000238,0.00005475,0.00031478,
 -0.00017228,-0.00691981,-0.01751402,-0.00001510,-0.05520789,-0.3400286
 6,-0.00031407,0.00278739,-0.00504695,-0.00000071,-0.00132500,0.0009679
 6,-0.00000429,0.00057044,0.00039537,0.00000008,-0.00013583,0.00019076,
 0.00016611,-0.00013574,0.00019013,-0.00016524,0.00000994,0.00004291,0.
 00000048,0.06036651,0.35953549,-0.00000044,0.00000140,-0.00361466,0.00
 118720,-0.00020101,-0.00040805,-0.00000366,0.00000097,-0.00052630,-0.0
 0118542,0.00020318,-0.00040462,-0.00000587,-0.00001213,-0.00275044,-0.
 00005903,-0.00031722,-0.02491378,0.00000652,-0.00000157,-0.00358335,-0
 .00000281,-0.00000466,0.00490142,0.00000080,0.00000072,-0.00001634,0.0
 0014277,-0.00019817,-0.00023287,-0.00014336,0.00019852,-0.00023352,0.0
 0000027,0.00000038,-0.00033069,0.00006201,0.00033659,0.02247038,-0.002
 53645,-0.03987944,-0.00004511,0.00073040,0.00003303,-0.00091909,-0.009
 62993,-0.01053153,-0.00001610,0.00073554,0.00002013,0.00092654,-0.1251
 6624,-0.03062162,-0.00003896,0.03365339,0.02463242,0.00002393,-0.02206
 324,-0.02981772,-0.00002726,-0.04583290,0.04121893,0.00004671,0.001576
 67,0.00434077,0.00000300,-0.00043595,0.00090815,0.00009119,-0.00043561
 ,0.00090797,-0.00009020,0.00095907,-0.00049250,-0.00000030,-0.00363630
 ,0.00279486,0.00000114,0.47641821,-0.01192554,-0.03213372,-0.00003840,
 -0.00062308,0.00339294,0.00186533,-0.00337787,0.00135718,0.00000081,-0
 .00062899,0.00340106,-0.00186045,-0.01798549,-0.37782679,-0.00031225,0
 .03718486,-0.06208694,-0.00007588,-0.04007996,-0.02918399,-0.00002569,
 0.00011296,0.03744827,0.00003619,0.00163114,-0.00027731,0.00000194,0.0
 0023505,0.00074974,0.00035151,0.00023593,0.00074979,-0.00035087,0.0008
 6259,-0.00005385,-0.00000042,0.00487973,0.00082018,-0.00000903,0.05233
 723,0.50989606,-0.00001345,-0.00002837,-0.00196221,-0.00087971,0.00051
 813,0.00189195,-0.00000663,-0.00000410,0.00148065,0.00087982,-0.000519
 54,0.00188457,-0.00002915,-0.00033088,-0.05885945,0.00003645,-0.000074
 17,0.01736922,-0.00004502,-0.00002961,-0.00549694,-0.00000554,0.000040
 56,0.00636014,0.00000205,0.00000051,0.00021824,-0.00015439,-0.00011154
 ,-0.00015787,0.00015465,0.00011337,-0.00015863,0.00000106,-0.00000002,
 -0.00013757,0.00000430,-0.00000958,0.01061374,0.00018358,0.00047189,0.
 05424545,0.00386737,0.00009721,-0.00000233,-0.00033988,0.00076893,0.00
 027495,0.00146064,0.00282297,0.00000509,-0.00034041,0.00077119,-0.0002
 7474,-0.00422598,-0.05757151,-0.00006361,-0.02724210,0.01027315,0.0000
 1008,0.03414213,0.04585948,0.00004686,0.00712689,-0.04651105,-0.000063
 28,-0.00128818,-0.00582687,-0.00000289,0.00053238,-0.00130057,-0.00025
 782,0.00053166,-0.00130060,0.00025620,-0.00114517,0.00062855,0.0000004
 0,-0.00281825,0.00002374,-0.00000013,-0.30433665,-0.02285858,-0.000128
 01,0.29407555,0.00053451,-0.00612460,-0.00001169,0.00063719,0.00049228
 ,-0.00014810,-0.00161167,-0.00175735,-0.00000261,0.00063685,0.00049353
 ,0.00014925,-0.05383891,-0.01764261,-0.00003635,0.00422859,-0.00164672
 ,0.00000405,0.00574704,-0.01718037,-0.00001921,-0.01381125,-0.00135583
 ,0.00001627,-0.00063362,0.00048830,-0.00000407,-0.00001981,0.00013438,
 0.00005618,-0.00002072,0.00013549,-0.00005575,0.00006778,0.00001980,-0
 .00000001,-0.00018927,0.00064910,0.00000204,-0.01585069,-0.05625262,-0
 .00003665,0.07412397,0.09954722,-0.00000022,-0.00000742,0.00448648,-0.
 00094208,0.00045667,0.00018923,0.00000038,0.00000016,-0.00011341,0.000
 94192,-0.00045840,0.00018710,-0.00005586,-0.00001868,0.00359531,0.0000
 0515,0.00000158,-0.00349060,0.00000869,-0.00001672,0.00123264,-0.00001
 549,0.00000908,-0.01423301,-0.00000218,-0.00000079,0.00293019,-0.00033
 327,0.00039111,-0.00007095,0.00033327,-0.00039060,-0.00007132,-0.00000
 001,0.00000002,0.00003594,-0.00000044,0.00000204,-0.00097092,-0.000139
 08,-0.00005469,-0.02729130,0.00019923,0.00008666,0.03358463\\0.0000171
 8,-0.00001688,-0.00002154,-0.00001004,0.00002026,0.00002342,0.00000852
 ,-0.00002622,0.00000110,-0.00000668,0.00001502,-0.00000419,-0.00000564
 ,-0.00002654,-0.00000448,0.00002671,0.00007199,0.00002365,0.00001121,-
 0.00005815,-0.00005815,-0.00000996,-0.00000675,0.00000765,-0.00001655,
 -0.00002480,0.00002240,-0.00000149,0.00002570,0.00003408,0.00000600,0.
 00001895,-0.00003329,-0.00001871,0.00000431,0.00000086,-0.00000933,0.0
 0001064,-0.00000087,0.00003487,0.00000131,-0.00001238,-0.00002609,-0.0
 0000884,0.00002174\\\@
 Job cpu time:       0 days  7 hours 49 minutes 24.5 seconds.
 Elapsed time:       0 days  1 hours 57 minutes 24.6 seconds.
 File lengths (MBytes):  RWF=  62857 Int=      0 D2E=      0 Chk=     85 Scr=      1
 Normal termination of Gaussian 16 at Wed Nov 17 17:51:16 2021.
