 Entering Gaussian System, Link 0=/home/artemiy/opt/gaussian/g16/g16
 Input=1,1,1,6,6,6-Hexacyanohexene-3_G3MP2.gjf
 Output=1,1,1,6,6,6-Hexacyanohexene-3_G3MP2.log
 Initial command:
 /home/artemiy/opt/gaussian/g16/l1.exe "/home/artemiy/opt/gaussian/scr/Gau-121145.inp" -scrdir="/home/artemiy/opt/gaussian/scr/"
 Entering Link 1 = /home/artemiy/opt/gaussian/g16/l1.exe PID=    121147.
  
 Copyright (c) 1988,1990,1992,1993,1995,1998,2003,2009,2016,
            Gaussian, Inc.  All Rights Reserved.
  
 This is part of the Gaussian(R) 16 program.  It is based on
 the Gaussian(R) 09 system (copyright 2009, Gaussian, Inc.),
 the Gaussian(R) 03 system (copyright 2003, Gaussian, Inc.),
 the Gaussian(R) 98 system (copyright 1998, Gaussian, Inc.),
 the Gaussian(R) 94 system (copyright 1995, Gaussian, Inc.),
 the Gaussian 92(TM) system (copyright 1992, Gaussian, Inc.),
 the Gaussian 90(TM) system (copyright 1990, Gaussian, Inc.),
 the Gaussian 88(TM) system (copyright 1988, Gaussian, Inc.),
 the Gaussian 86(TM) system (copyright 1986, Carnegie Mellon
 University), and the Gaussian 82(TM) system (copyright 1983,
 Carnegie Mellon University). Gaussian is a federally registered
 trademark of Gaussian, Inc.
  
 This software contains proprietary and confidential information,
 including trade secrets, belonging to Gaussian, Inc.
  
 This software is provided under written license and may be
 used, copied, transmitted, or stored only in accord with that
 written license.
  
 The following legend is applicable only to US Government
 contracts under FAR:
  
                    RESTRICTED RIGHTS LEGEND
  
 Use, reproduction and disclosure by the US Government is
 subject to restrictions as set forth in subparagraphs (a)
 and (c) of the Commercial Computer Software - Restricted
 Rights clause in FAR 52.227-19.
  
 Gaussian, Inc.
 340 Quinnipiac St., Bldg. 40, Wallingford CT 06492
  
  
 ---------------------------------------------------------------
 Warning -- This program may not be used in any manner that
 competes with the business of Gaussian, Inc. or will provide
 assistance to any competitor of Gaussian, Inc.  The licensee
 of this program is prohibited from giving any competitor of
 Gaussian, Inc. access to this program.  By using this program,
 the user acknowledges that Gaussian, Inc. is engaged in the
 business of creating and licensing software in the field of
 computational chemistry and represents and warrants to the
 licensee that it is not a competitor of Gaussian, Inc. and that
 it will not use this program in any manner prohibited above.
 ---------------------------------------------------------------
  

 Cite this work as:
 Gaussian 16, Revision A.03,
 M. J. Frisch, G. W. Trucks, H. B. Schlegel, G. E. Scuseria, 
 M. A. Robb, J. R. Cheeseman, G. Scalmani, V. Barone, 
 G. A. Petersson, H. Nakatsuji, X. Li, M. Caricato, A. V. Marenich, 
 J. Bloino, B. G. Janesko, R. Gomperts, B. Mennucci, H. P. Hratchian, 
 J. V. Ortiz, A. F. Izmaylov, J. L. Sonnenberg, D. Williams-Young, 
 F. Ding, F. Lipparini, F. Egidi, J. Goings, B. Peng, A. Petrone, 
 T. Henderson, D. Ranasinghe, V. G. Zakrzewski, J. Gao, N. Rega, 
 G. Zheng, W. Liang, M. Hada, M. Ehara, K. Toyota, R. Fukuda, 
 J. Hasegawa, M. Ishida, T. Nakajima, Y. Honda, O. Kitao, H. Nakai, 
 T. Vreven, K. Throssell, J. A. Montgomery, Jr., J. E. Peralta, 
 F. Ogliaro, M. J. Bearpark, J. J. Heyd, E. N. Brothers, K. N. Kudin, 
 V. N. Staroverov, T. A. Keith, R. Kobayashi, J. Normand, 
 K. Raghavachari, A. P. Rendell, J. C. Burant, S. S. Iyengar, 
 J. Tomasi, M. Cossi, J. M. Millam, M. Klene, C. Adamo, R. Cammi, 
 J. W. Ochterski, R. L. Martin, K. Morokuma, O. Farkas, 
 J. B. Foresman, and D. J. Fox, Gaussian, Inc., Wallingford CT, 2016.
 
 ******************************************
 Gaussian 16:  ES64L-G16RevA.03 25-Dec-2016
                18-Jun-2022 
 ******************************************
 %mem=8GB
 %nprocshared=4
 Will use up to    4 processors via shared memory.
 ----------------
 # g3mp2 geom=gic
 ----------------
 1/18=20,19=15,38=1,145=2/1,3;
 2/9=110,12=2,17=6,18=5,40=1/2;
 3/5=33,7=1,11=9,25=1,30=1,71=1/1,2,3;
 4//1;
 5/5=2,38=5/2;
 6/7=2,8=2,9=2,10=2,28=1/1;
 7//1,2,3,16;
 1/18=20,19=15,145=2/3(2);
 2/9=110/2;
 99//99;
 2/9=110/2;
 3/5=33,7=1,11=9,25=1,30=1,71=1/1,2,3;
 4/5=5,16=3,69=1/1;
 5/5=2,38=5/2;
 7//1,2,3,16;
 1/18=20,19=15,145=2/3(-5);
 2/9=110/2;
 6/7=2,8=2,9=2,10=2,19=2,28=1/1;
 99/9=1/99;
 -------------------
 CAS 10380-69-5
 -------------------
 Symbolic Z-matrix:
 Charge =  0 Multiplicity = 1
 C                     2.47121   0.02832  -0.07423 
 C                     1.93321   0.15376  -1.53364 
 H                     1.95531   1.20861  -1.81768 
 H                     2.5973   -0.40862  -2.19444 
 C                     1.59624   0.76824   0.82536 
 C                     2.51778  -1.37217   0.32756 
 C                     3.81597   0.58188   0.01365 
 N                     4.86759   1.02017   0.05374 
 N                     0.88938   1.36692   1.48981 
 N                     2.56695  -2.47705   0.60271 
 C                     0.53848  -0.38423  -1.59197 
 H                     0.44798  -1.4631   -1.57862 
 C                    -0.53894   0.38441  -1.59245 
 H                    -0.44841   1.46329  -1.58001 
 C                    -1.93368  -0.15351  -1.53386 
 H                    -1.95595  -1.20831  -1.81809 
 H                    -2.59793   0.40903  -2.19437 
 C                    -2.47125  -0.02831  -0.07425 
 C                    -3.81648  -0.58068   0.01362 
 C                    -1.59668  -0.76943   0.82474 
 C                    -2.51658   1.37202   0.32825 
 N                    -0.89038  -1.36932   1.48868 
 N                    -2.56429   2.47689   0.60375 
 N                    -4.86852  -1.01795   0.05375 
 
 Initializing the GIC definitions file.

 GradGradGradGradGradGradGradGradGradGradGradGradGradGradGradGradGradGrad
 Berny optimization.
 Initialization pass.
                           ----------------------------
                           !    Initial Parameters    !
                           ! (Angstroms and Degrees)  !
 --------------------------                            --------------------------
 ! Name  Definition              Value          Derivative Info.                !
 --------------------------------------------------------------------------------
 ! R1    R(1,2)                  1.5605         estimate D2E/DX2                !
 ! R2    R(1,5)                  1.4568         estimate D2E/DX2                !
 ! R3    R(1,6)                  1.4577         estimate D2E/DX2                !
 ! R4    R(1,7)                  1.4569         estimate D2E/DX2                !
 ! R5    R(2,3)                  1.0926         estimate D2E/DX2                !
 ! R6    R(2,4)                  1.0927         estimate D2E/DX2                !
 ! R7    R(2,11)                 1.496          estimate D2E/DX2                !
 ! R8    R(5,9)                  1.14           estimate D2E/DX2                !
 ! R9    R(6,10)                 1.1397         estimate D2E/DX2                !
 ! R10   R(7,8)                  1.14           estimate D2E/DX2                !
 ! R11   R(11,12)                1.0827         estimate D2E/DX2                !
 ! R12   R(11,13)                1.3235         estimate D2E/DX2                !
 ! R13   R(13,14)                1.0827         estimate D2E/DX2                !
 ! R14   R(13,15)                1.496          estimate D2E/DX2                !
 ! R15   R(15,16)                1.0926         estimate D2E/DX2                !
 ! R16   R(15,17)                1.0927         estimate D2E/DX2                !
 ! R17   R(15,18)                1.5605         estimate D2E/DX2                !
 ! R18   R(18,19)                1.4569         estimate D2E/DX2                !
 ! R19   R(18,20)                1.4568         estimate D2E/DX2                !
 ! R20   R(18,21)                1.4577         estimate D2E/DX2                !
 ! R21   R(19,24)                1.14           estimate D2E/DX2                !
 ! R22   R(20,22)                1.14           estimate D2E/DX2                !
 ! R23   R(21,23)                1.1397         estimate D2E/DX2                !
 ! A1    A(2,1,5)              109.2451         estimate D2E/DX2                !
 ! A2    A(2,1,6)              110.2437         estimate D2E/DX2                !
 ! A3    A(2,1,7)              110.1274         estimate D2E/DX2                !
 ! A4    A(5,1,6)              109.6907         estimate D2E/DX2                !
 ! A5    A(5,1,7)              108.9146         estimate D2E/DX2                !
 ! A6    A(6,1,7)              108.598          estimate D2E/DX2                !
 ! A7    A(1,2,3)              108.2854         estimate D2E/DX2                !
 ! A8    A(1,2,4)              108.3411         estimate D2E/DX2                !
 ! A9    A(1,2,11)             109.2074         estimate D2E/DX2                !
 ! A10   A(3,2,4)              109.1091         estimate D2E/DX2                !
 ! A11   A(3,2,11)             110.8485         estimate D2E/DX2                !
 ! A12   A(4,2,11)             110.9741         estimate D2E/DX2                !
 ! A13   L(1,5,9,14,-1)        177.6023         estimate D2E/DX2                !
 ! A14   L(1,5,9,14,-2)        180.6429         estimate D2E/DX2                !
 ! A15   L(1,6,10,22,-1)       181.2411         estimate D2E/DX2                !
 ! A16   L(1,6,10,22,-2)       178.2774         estimate D2E/DX2                !
 ! A17   L(1,7,8,3,-1)         178.6884         estimate D2E/DX2                !
 ! A18   L(1,7,8,3,-2)         180.8021         estimate D2E/DX2                !
 ! A19   A(2,11,12)            115.8344         estimate D2E/DX2                !
 ! A20   A(2,11,13)            123.3747         estimate D2E/DX2                !
 ! A21   A(12,11,13)           120.707          estimate D2E/DX2                !
 ! A22   A(11,13,14)           120.7056         estimate D2E/DX2                !
 ! A23   A(11,13,15)           123.3753         estimate D2E/DX2                !
 ! A24   A(14,13,15)           115.8349         estimate D2E/DX2                !
 ! A25   A(13,15,16)           110.8503         estimate D2E/DX2                !
 ! A26   A(13,15,17)           110.9754         estimate D2E/DX2                !
 ! A27   A(13,15,18)           109.2046         estimate D2E/DX2                !
 ! A28   A(16,15,17)           109.1083         estimate D2E/DX2                !
 ! A29   A(16,15,18)           108.2853         estimate D2E/DX2                !
 ! A30   A(17,15,18)           108.3418         estimate D2E/DX2                !
 ! A31   A(15,18,19)           110.126          estimate D2E/DX2                !
 ! A32   A(15,18,20)           109.2433         estimate D2E/DX2                !
 ! A33   A(15,18,21)           110.246          estimate D2E/DX2                !
 ! A34   A(19,18,20)           108.9183         estimate D2E/DX2                !
 ! A35   A(19,18,21)           108.5931         estimate D2E/DX2                !
 ! A36   A(20,18,21)           109.6928         estimate D2E/DX2                !
 ! A37   L(18,19,24,16,-1)     178.6927         estimate D2E/DX2                !
 ! A38   L(18,19,24,16,-2)     180.8052         estimate D2E/DX2                !
 ! A39   L(18,20,22,12,-1)     177.6055         estimate D2E/DX2                !
 ! A40   L(18,20,22,12,-2)     180.6614         estimate D2E/DX2                !
 ! A41   L(18,21,23,9,-1)      181.2219         estimate D2E/DX2                !
 ! A42   L(18,21,23,9,-2)      178.2592         estimate D2E/DX2                !
 ! D1    D(5,1,2,3)             61.9846         estimate D2E/DX2                !
 ! D2    D(5,1,2,4)           -179.8009         estimate D2E/DX2                !
 ! D3    D(5,1,2,11)           -58.8151         estimate D2E/DX2                !
 ! D4    D(6,1,2,3)           -177.4091         estimate D2E/DX2                !
 ! D5    D(6,1,2,4)            -59.1946         estimate D2E/DX2                !
 ! D6    D(6,1,2,11)            61.7912         estimate D2E/DX2                !
 ! D7    D(7,1,2,3)            -57.5946         estimate D2E/DX2                !
 ! D8    D(7,1,2,4)             60.6199         estimate D2E/DX2                !
 ! D9    D(7,1,2,11)          -178.3943         estimate D2E/DX2                !
 ! D10   D(1,2,11,12)          -75.9618         estimate D2E/DX2                !
 ! D11   D(1,2,11,13)          100.7217         estimate D2E/DX2                !
 ! D12   D(3,2,11,12)          164.816          estimate D2E/DX2                !
 ! D13   D(3,2,11,13)          -18.5005         estimate D2E/DX2                !
 ! D14   D(4,2,11,12)           43.4064         estimate D2E/DX2                !
 ! D15   D(4,2,11,13)         -139.9101         estimate D2E/DX2                !
 ! D16   D(2,11,13,14)           1.8851         estimate D2E/DX2                !
 ! D17   D(2,11,13,15)        -174.6359         estimate D2E/DX2                !
 ! D18   D(12,11,13,14)        178.4131         estimate D2E/DX2                !
 ! D19   D(12,11,13,15)          1.8921         estimate D2E/DX2                !
 ! D20   D(11,13,15,16)        -18.5717         estimate D2E/DX2                !
 ! D21   D(11,13,15,17)       -139.9823         estimate D2E/DX2                !
 ! D22   D(11,13,15,18)        100.6497         estimate D2E/DX2                !
 ! D23   D(14,13,15,16)        164.7515         estimate D2E/DX2                !
 ! D24   D(14,13,15,17)         43.3409         estimate D2E/DX2                !
 ! D25   D(14,13,15,18)        -76.0271         estimate D2E/DX2                !
 ! D26   D(13,15,18,19)       -178.4461         estimate D2E/DX2                !
 ! D27   D(13,15,18,20)        -58.8643         estimate D2E/DX2                !
 ! D28   D(13,15,18,21)         61.7449         estimate D2E/DX2                !
 ! D29   D(16,15,18,19)        -57.6461         estimate D2E/DX2                !
 ! D30   D(16,15,18,20)         61.9358         estimate D2E/DX2                !
 ! D31   D(16,15,18,21)       -177.455          estimate D2E/DX2                !
 ! D32   D(17,15,18,19)         60.5678         estimate D2E/DX2                !
 ! D33   D(17,15,18,20)       -179.8504         estimate D2E/DX2                !
 ! D34   D(17,15,18,21)        -59.2412         estimate D2E/DX2                !
 --------------------------------------------------------------------------------
 Trust Radius=3.00D-01 FncErr=1.00D-07 GrdErr=1.00D-07 EigMax=2.50D+02 EigMin=1.00D-04
 Number of steps in this run=    109 maximum allowed number of steps=    144.
 GradGradGradGradGradGradGradGradGradGradGradGradGradGradGradGradGradGrad

                          Input orientation:                          
 ---------------------------------------------------------------------
 Center     Atomic      Atomic             Coordinates (Angstroms)
 Number     Number       Type             X           Y           Z
 ---------------------------------------------------------------------
      1          6           0        2.471215    0.028324   -0.074228
      2          6           0        1.933206    0.153761   -1.533636
      3          1           0        1.955311    1.208611   -1.817678
      4          1           0        2.597303   -0.408619   -2.194440
      5          6           0        1.596237    0.768237    0.825359
      6          6           0        2.517780   -1.372166    0.327556
      7          6           0        3.815975    0.581878    0.013650
      8          7           0        4.867595    1.020167    0.053736
      9          7           0        0.889379    1.366922    1.489813
     10          7           0        2.566951   -2.477049    0.602708
     11          6           0        0.538485   -0.384230   -1.591970
     12          1           0        0.447984   -1.463105   -1.578621
     13          6           0       -0.538937    0.384410   -1.592446
     14          1           0       -0.448414    1.463290   -1.580012
     15          6           0       -1.933682   -0.153511   -1.533862
     16          1           0       -1.955955   -1.208307   -1.818094
     17          1           0       -2.597931    0.409028   -2.194369
     18          6           0       -2.471246   -0.028307   -0.074251
     19          6           0       -3.816483   -0.580675    0.013625
     20          6           0       -1.596683   -0.769427    0.824737
     21          6           0       -2.516579    1.372022    0.328247
     22          7           0       -0.890377   -1.369317    1.488683
     23          7           0       -2.564294    2.476888    0.603750
     24          7           0       -4.868520   -1.017946    0.053751
 ---------------------------------------------------------------------
                    Distance matrix (angstroms):
                    1          2          3          4          5
     1  C    0.000000
     2  C    1.560468   0.000000
     3  H    2.167684   1.092647   0.000000
     4  H    2.168437   1.092684   1.780320   0.000000
     5  C    1.456817   2.460892   2.703426   3.392096   0.000000
     6  C    1.457728   2.476734   3.402765   2.700964   2.382935
     7  C    1.456889   2.474307   2.684889   2.709595   2.370831
     8  N    2.596683   3.446889   3.466857   3.499993   3.370557
     9  N    2.596203   3.420903   3.478616   4.432073   1.139987
    10  N    2.596980   3.447718   4.451569   3.478988   3.394664
    11  C    2.491824   1.496022   2.143708   2.145297   2.879323
    12  H    2.929338   2.195942   3.076890   2.471992   3.475125
    13  C    3.390103   2.483576   2.636534   3.290486   3.248396
    14  H    3.584793   2.718295   2.428835   3.627390   3.232569
    15  C    4.643997   3.879076   4.130399   4.585986   4.344637
    16  H    4.916315   4.130583   4.597770   4.638242   4.848983
    17  H    5.507828   4.586167   4.638237   5.259183   5.180621
    18  C    4.942785   4.643506   4.915680   5.507271   4.241250
    19  C    6.317732   5.999360   6.314176   6.785411   5.637021
    20  C    4.241737   4.344458   4.848882   5.180264   3.543889
    21  C    5.181274   4.975073   4.962811   5.973811   4.186518
    22  N    3.961867   4.407584   5.067117   5.162581   3.345502
    23  N    5.640165   5.494801   5.281919   6.542026   4.503178
    24  N    7.415036   7.082101   7.417848   7.820751   6.751215
                    6          7          8          9         10
     6  C    0.000000
     7  C    2.366884   0.000000
     8  N    3.364500   1.140003   0.000000
     9  N    3.391922   3.370507   4.243672   0.000000
    10  N    1.139690   3.356201   4.221948   4.286877   0.000000
    11  C    2.928857   3.775357   4.839614   3.561888   3.648449
    12  H    2.815286   4.249782   5.325804   4.197520   3.205667
    13  C    4.014410   4.645837   5.687239   3.536346   4.759537
    14  H    4.525144   4.636988   5.579018   3.350045   5.420605
    15  C    4.976495   5.999512   7.082044   4.407267   5.497222
    16  H    4.964369   6.314683   7.418266   5.066555   5.284569
    17  H    5.975220   6.785530   7.820584   5.162566   6.544394
    18  C    5.182450   6.317373   7.414463   3.960652   5.642521
    19  C    6.391236   7.720488   8.830487   5.302585   6.685169
    20  C    4.187994   5.637442   6.751590   3.344670   4.505676
    21  C    5.733702   6.389408   7.397647   3.598585   6.382238
    22  N    3.600522   5.304021   6.397104   3.264129   3.736996
    23  N    6.381142   6.681849   7.593255   3.734299   7.132403
    24  N    7.399856   8.830713   9.947152   6.395567   7.597142
                   11         12         13         14         15
    11  C    0.000000
    12  H    1.082747   0.000000
    13  C    1.323497   2.094640   0.000000
    14  H    2.094622   3.060607   1.082742   0.000000
    15  C    2.483589   2.718340   1.496029   2.195950   0.000000
    16  H    2.636753   2.429236   2.143735   3.076815   1.092647
    17  H    3.290782   3.627896   2.145314   2.471705   1.092679
    18  C    3.389489   3.583808   2.491800   2.929851   1.560486
    19  C    4.645672   4.636766   3.775335   4.249865   2.474292
    20  C    3.247736   3.230787   2.879747   3.476544   2.460876
    21  C    4.013112   4.523574   2.928397   2.815508   2.476786
    22  N    3.535882   3.347889   3.562643   4.199509   3.420884
    23  N    4.757564   5.418497   3.647439   3.205174   3.447616
    24  N    5.687327   5.579249   4.839612   5.325696   3.446888
                   16         17         18         19         20
    16  H    0.000000
    17  H    1.780306   0.000000
    18  C    2.167698   2.168458   0.000000
    19  C    2.685271   2.709173   1.456878   0.000000
    20  C    2.703007   3.392087   1.456812   2.370873   0.000000
    21  C    3.402819   2.701401   1.457731   2.366804   2.382963
    22  N    3.477953   4.432057   2.596194   3.370437   1.139983
    23  N    4.451524   3.479460   2.596988   3.356325   3.394653
    24  N    3.467431   3.499410   2.596669   1.139999   3.370623
                   21         22         23         24
    21  C    0.000000
    22  N    3.392062   0.000000
    23  N    1.139696   4.287004   0.000000
    24  N    3.364360   4.243597   4.222064   0.000000
 Stoichiometry    C12H6N6
 Framework group  C1[X(C12H6N6)]
 Deg. of freedom    66
 Full point group                 C1      NOp   1
 Largest Abelian subgroup         C1      NOp   1
 Largest concise Abelian subgroup C1      NOp   1
                         Standard orientation:                         
 ---------------------------------------------------------------------
 Center     Atomic      Atomic             Coordinates (Angstroms)
 Number     Number       Type             X           Y           Z
 ---------------------------------------------------------------------
      1          6           0        2.471247   -0.026027    0.028066
      2          6           0        1.933355   -0.151963    1.487474
      3          1           0        1.956439   -1.206793    1.771516
      4          1           0        2.596930    0.411033    2.148278
      5          6           0        1.596956   -0.766752   -0.871521
      6          6           0        2.516513    1.374506   -0.373718
      7          6           0        3.816520   -0.578333   -0.059812
      8          7           0        4.868546   -1.015645   -0.099898
      9          7           0        0.890655   -1.366092   -1.535975
     10          7           0        2.564658    2.479434   -0.648870
     11          6           0        0.538135    0.384733    1.545808
     12          1           0        0.446633    1.463524    1.532459
     13          6           0       -0.538573   -0.384906    1.546284
     14          1           0       -0.447049   -1.463701    1.533850
     15          6           0       -1.933816    0.151721    1.487700
     16          1           0       -1.957068    1.206495    1.771932
     17          1           0       -2.597543   -0.411435    2.148207
     18          6           0       -2.471265    0.026017    0.028089
     19          6           0       -3.817013    0.577137   -0.059787
     20          6           0       -1.597389    0.767949   -0.870899
     21          6           0       -2.515298   -1.374353   -0.374409
     22          7           0       -0.891640    1.368494   -1.534845
     23          7           0       -2.561987   -2.479263   -0.649912
     24          7           0       -4.869455    1.013431   -0.099913
 ---------------------------------------------------------------------
 Rotational constants (GHZ):           0.8981754           0.2621155           0.2488962
 Standard basis: GTBas1 (6D, 7F)
 There are   282 symmetry adapted cartesian basis functions of A   symmetry.
 There are   282 symmetry adapted basis functions of A   symmetry.
   282 basis functions,   528 primitive gaussians,   282 cartesian basis functions
    60 alpha electrons       60 beta electrons
       nuclear repulsion energy      1107.6474924111 Hartrees.
 NAtoms=   24 NActive=   24 NUniq=   24 SFac= 1.00D+00 NAtFMM=   60 NAOKFM=F Big=F
 Integral buffers will be    131072 words long.
 Raffenetti 1 integral format.
 Two-electron integral symmetry is turned on.
 One-electron integrals computed using PRISM.
 NBasis=   282 RedAO= T EigKep=  5.72D-04  NBF=   282
 NBsUse=   282 1.00D-06 EigRej= -1.00D+00 NBFU=   282
 ExpMin= 1.61D-01 ExpMax= 4.17D+03 ExpMxC= 6.27D+02 IAcc=3 IRadAn=         5 AccDes= 0.00D+00
 Harris functional with IExCor=  205 and IRadAn=       5 diagonalized for initial guess.
 HarFok:  IExCor=  205 AccDes= 0.00D+00 IRadAn=         5 IDoV= 1 UseB2=F ITyADJ=14
 ICtDFT=  3500011 ScaDFX=  1.000000  1.000000  1.000000  1.000000
 FoFCou: FMM=F IPFlag=           0 FMFlag=      100000 FMFlg1=           0
         NFxFlg=           0 DoJE=T BraDBF=F KetDBF=T FulRan=T
         wScrn=  0.000000 ICntrl=       500 IOpCl=  0 I1Cent=   200000004 NGrid=           0
         NMat0=    1 NMatS0=      1 NMatT0=    0 NMatD0=    1 NMtDS0=    0 NMtDT0=    0
 Petite list used in FoFCou.
 Keep R1 ints in memory in canonical form, NReq=807478833.
 Requested convergence on RMS density matrix=1.00D-08 within 128 cycles.
 Requested convergence on MAX density matrix=1.00D-06.
 Requested convergence on             energy=1.00D-06.
 No special actions if energy rises.
 SCF Done:  E(RHF) =  -784.478611691     A.U. after   13 cycles
            NFock= 13  Conv=0.99D-08     -V/T= 2.0014

 **********************************************************************

            Population analysis using the SCF density.

 **********************************************************************

 Orbital symmetries:
       Occupied  (A) (A) (A) (A) (A) (A) (A) (A) (A) (A) (A) (A)
                 (A) (A) (A) (A) (A) (A) (A) (A) (A) (A) (A) (A)
                 (A) (A) (A) (A) (A) (A) (A) (A) (A) (A) (A) (A)
                 (A) (A) (A) (A) (A) (A) (A) (A) (A) (A) (A) (A)
                 (A) (A) (A) (A) (A) (A) (A) (A) (A) (A) (A) (A)
       Virtual   (A) (A) (A) (A) (A) (A) (A) (A) (A) (A) (A) (A)
                 (A) (A) (A) (A) (A) (A) (A) (A) (A) (A) (A) (A)
                 (A) (A) (A) (A) (A) (A) (A) (A) (A) (A) (A) (A)
                 (A) (A) (A) (A) (A) (A) (A) (A) (A) (A) (A) (A)
                 (A) (A) (A) (A) (A) (A) (A) (A) (A) (A) (A) (A)
                 (A) (A) (A) (A) (A) (A) (A) (A) (A) (A) (A) (A)
                 (A) (A) (A) (A) (A) (A) (A) (A) (A) (A) (A) (A)
                 (A) (A) (A) (A) (A) (A) (A) (A) (A) (A) (A) (A)
                 (A) (A) (A) (A) (A) (A) (A) (A) (A) (A) (A) (A)
                 (A) (A) (A) (A) (A) (A) (A) (A) (A) (A) (A) (A)
                 (A) (A) (A) (A) (A) (A) (A) (A) (A) (A) (A) (A)
                 (A) (A) (A) (A) (A) (A) (A) (A) (A) (A) (A) (A)
                 (A) (A) (A) (A) (A) (A) (A) (A) (A) (A) (A) (A)
                 (A) (A) (A) (A) (A) (A) (A) (A) (A) (A) (A) (A)
                 (A) (A) (A) (A) (A) (A) (A) (A) (A) (A) (A) (A)
                 (A) (A) (A) (A) (A) (A) (A) (A) (A) (A) (A) (A)
                 (A) (A) (A) (A) (A) (A) (A) (A) (A) (A) (A) (A)
                 (A) (A) (A) (A) (A) (A) (A) (A) (A) (A) (A) (A)
                 (A) (A) (A) (A) (A) (A)
 The electronic state is 1-A.
 Alpha  occ. eigenvalues --  -15.63298 -15.63298 -15.63148 -15.63147 -15.62964
 Alpha  occ. eigenvalues --  -15.62964 -11.41643 -11.41643 -11.33026 -11.33025
 Alpha  occ. eigenvalues --  -11.32848 -11.32847 -11.32795 -11.32794 -11.32502
 Alpha  occ. eigenvalues --  -11.32502 -11.29988 -11.29812  -1.30759  -1.30513
 Alpha  occ. eigenvalues --   -1.27416  -1.27337  -1.27289  -1.27159  -1.20727
 Alpha  occ. eigenvalues --   -1.19382  -1.12903  -1.03922  -0.95215  -0.86172
 Alpha  occ. eigenvalues --   -0.84824  -0.84789  -0.84076  -0.80476  -0.70758
 Alpha  occ. eigenvalues --   -0.69771  -0.68850  -0.67160  -0.61659  -0.61291
 Alpha  occ. eigenvalues --   -0.60967  -0.60888  -0.60440  -0.60028  -0.59634
 Alpha  occ. eigenvalues --   -0.59121  -0.56889  -0.54836  -0.54281  -0.53509
 Alpha  occ. eigenvalues --   -0.53475  -0.51947  -0.51384  -0.51278  -0.51158
 Alpha  occ. eigenvalues --   -0.50803  -0.50425  -0.50403  -0.49794  -0.42590
 Alpha virt. eigenvalues --    0.08621   0.11456   0.12006   0.12662   0.12690
 Alpha virt. eigenvalues --    0.13340   0.13363   0.18127   0.18764   0.19297
 Alpha virt. eigenvalues --    0.19592   0.20160   0.21217   0.22462   0.25353
 Alpha virt. eigenvalues --    0.26695   0.27515   0.27597   0.28147   0.28441
 Alpha virt. eigenvalues --    0.29516   0.33863   0.34253   0.34598   0.35880
 Alpha virt. eigenvalues --    0.37742   0.38283   0.39969   0.44404   0.50863
 Alpha virt. eigenvalues --    0.52213   0.54002   0.54155   0.55371   0.57091
 Alpha virt. eigenvalues --    0.59855   0.62066   0.66386   0.66584   0.68347
 Alpha virt. eigenvalues --    0.70784   0.71476   0.72370   0.74228   0.75201
 Alpha virt. eigenvalues --    0.75729   0.76569   0.79230   0.79385   0.80758
 Alpha virt. eigenvalues --    0.80837   0.81098   0.82245   0.82384   0.83827
 Alpha virt. eigenvalues --    0.84991   0.85113   0.85951   0.87630   0.87767
 Alpha virt. eigenvalues --    0.89324   0.90735   0.91692   0.92204   0.93831
 Alpha virt. eigenvalues --    0.95190   0.97148   0.99681   1.01041   1.01050
 Alpha virt. eigenvalues --    1.03163   1.04292   1.05219   1.05661   1.06384
 Alpha virt. eigenvalues --    1.06819   1.06885   1.07584   1.08044   1.08847
 Alpha virt. eigenvalues --    1.09206   1.10388   1.11006   1.12403   1.12467
 Alpha virt. eigenvalues --    1.13793   1.15215   1.16399   1.17345   1.19779
 Alpha virt. eigenvalues --    1.20432   1.20440   1.25952   1.26706   1.30234
 Alpha virt. eigenvalues --    1.32391   1.33205   1.34602   1.39300   1.42076
 Alpha virt. eigenvalues --    1.42846   1.45398   1.45978   1.48129   1.51081
 Alpha virt. eigenvalues --    1.51165   1.52093   1.62417   1.66009   1.66807
 Alpha virt. eigenvalues --    1.67442   1.70544   1.72103   1.74389   1.74568
 Alpha virt. eigenvalues --    1.74592   1.74906   1.75211   1.76024   1.76609
 Alpha virt. eigenvalues --    1.76622   1.78004   1.79332   1.79838   1.83532
 Alpha virt. eigenvalues --    1.86018   1.87689   1.89254   1.89402   1.90693
 Alpha virt. eigenvalues --    1.92993   1.93828   1.94543   1.95259   1.96336
 Alpha virt. eigenvalues --    2.06477   2.07199   2.09871   2.10270   2.14781
 Alpha virt. eigenvalues --    2.15849   2.17926   2.18208   2.19177   2.22318
 Alpha virt. eigenvalues --    2.22502   2.22598   2.23642   2.24404   2.24719
 Alpha virt. eigenvalues --    2.25932   2.26313   2.26524   2.27974   2.28535
 Alpha virt. eigenvalues --    2.30324   2.32100   2.32562   2.33109   2.33705
 Alpha virt. eigenvalues --    2.34648   2.35994   2.41231   2.42866   2.45349
 Alpha virt. eigenvalues --    2.47788   2.47989   2.50683   2.51986   2.56024
 Alpha virt. eigenvalues --    2.56339   2.61423   2.63623   2.71096   2.76301
 Alpha virt. eigenvalues --    2.79699   2.80462   2.90679   2.91196   2.95500
 Alpha virt. eigenvalues --    2.96425   2.96679   2.97668   3.00899   3.02326
 Alpha virt. eigenvalues --    3.07546   3.13828   3.15763   3.15911   3.16861
 Alpha virt. eigenvalues --    3.17436   3.20800   3.22340   3.26845   3.32483
 Alpha virt. eigenvalues --    3.32772   3.33939   3.34044   3.51690   3.51900
 Alpha virt. eigenvalues --    3.69221   3.70435   3.71152   3.72030   4.46316
 Alpha virt. eigenvalues --    4.46557   4.48506   4.48931   4.52114   4.52340
 Alpha virt. eigenvalues --    4.57513   4.62729   4.71594   4.73495   4.79094
 Alpha virt. eigenvalues --    4.85926   4.89317   4.89546   4.90984   4.91378
 Alpha virt. eigenvalues --    5.50443   5.51862
          Condensed to atoms (all electrons):
               1          2          3          4          5          6
     1  C    5.115150   0.351090  -0.034900  -0.041731   0.309193   0.312236
     2  C    0.351090   5.100635   0.400728   0.401085  -0.058398  -0.058249
     3  H   -0.034900   0.400728   0.443472  -0.014762  -0.003019   0.005386
     4  H   -0.041731   0.401085  -0.014762   0.448444   0.005740  -0.003201
     5  C    0.309193  -0.058398  -0.003019   0.005740   4.629074  -0.081315
     6  C    0.312236  -0.058249   0.005386  -0.003201  -0.081315   4.619168
     7  C    0.327395  -0.056731  -0.004342  -0.003429  -0.074349  -0.074367
     8  N   -0.052671  -0.001922   0.000110   0.000097  -0.003438  -0.003210
     9  N   -0.045387  -0.002428   0.000042   0.000000   0.897879  -0.003251
    10  N   -0.048954  -0.002280   0.000008   0.000095  -0.003301   0.917771
    11  C   -0.059528   0.345508  -0.040151  -0.034014  -0.010393  -0.010456
    12  H   -0.001468  -0.032635   0.002206  -0.001474   0.000141   0.003866
    13  C   -0.007400  -0.045692   0.001996   0.001331   0.005291   0.000246
    14  H    0.000072  -0.002302   0.002510   0.000042   0.000343   0.000030
    15  C    0.000006   0.002791   0.000094  -0.000087  -0.000308  -0.000001
    16  H   -0.000009   0.000094   0.000010   0.000000   0.000000  -0.000001
    17  H   -0.000005  -0.000087   0.000000   0.000004   0.000003  -0.000000
    18  C    0.000015   0.000006  -0.000009  -0.000005   0.000054   0.000026
    19  C   -0.000000   0.000002   0.000000  -0.000000   0.000008   0.000000
    20  C    0.000054  -0.000307   0.000000   0.000003   0.000707   0.000355
    21  C    0.000026  -0.000001  -0.000001  -0.000000   0.000356  -0.000001
    22  N    0.000010  -0.000077  -0.000001  -0.000003   0.000015   0.001277
    23  N    0.000002   0.000001  -0.000001  -0.000000   0.000083   0.000000
    24  N   -0.000000   0.000000  -0.000000  -0.000000  -0.000000   0.000000
               7          8          9         10         11         12
     1  C    0.327395  -0.052671  -0.045387  -0.048954  -0.059528  -0.001468
     2  C   -0.056731  -0.001922  -0.002428  -0.002280   0.345508  -0.032635
     3  H   -0.004342   0.000110   0.000042   0.000008  -0.040151   0.002206
     4  H   -0.003429   0.000097   0.000000   0.000095  -0.034014  -0.001474
     5  C   -0.074349  -0.003438   0.897879  -0.003301  -0.010393   0.000141
     6  C   -0.074367  -0.003210  -0.003251   0.917771  -0.010456   0.003866
     7  C    4.592590   0.934430  -0.003206  -0.003425   0.006284  -0.000172
     8  N    0.934430   6.521502  -0.000143  -0.000146  -0.000035  -0.000001
     9  N   -0.003206  -0.000143   6.569563  -0.000077  -0.003268  -0.000014
    10  N   -0.003425  -0.000146  -0.000077   6.535890  -0.001301   0.000865
    11  C    0.006284  -0.000035  -0.003268  -0.001301   5.015495   0.390025
    12  H   -0.000172  -0.000001  -0.000014   0.000865   0.390025   0.431462
    13  C   -0.000159  -0.000001  -0.001125  -0.000007   0.658000  -0.033049
    14  H   -0.000021  -0.000000   0.000281  -0.000000  -0.033057   0.002443
    15  C    0.000002   0.000000  -0.000077   0.000001  -0.045717  -0.002297
    16  H    0.000000  -0.000000  -0.000001  -0.000001   0.001988   0.002508
    17  H   -0.000000  -0.000000  -0.000003  -0.000000   0.001336   0.000042
    18  C   -0.000000  -0.000000   0.000009   0.000002  -0.007398   0.000071
    19  C    0.000000  -0.000000   0.000008  -0.000000  -0.000158  -0.000021
    20  C    0.000008  -0.000000   0.000014   0.000082   0.005292   0.000346
    21  C    0.000000   0.000000   0.001281   0.000000   0.000243   0.000031
    22  N    0.000008   0.000000  -0.002464  -0.000444  -0.001127   0.000283
    23  N   -0.000000   0.000000  -0.000447   0.000000  -0.000007  -0.000000
    24  N   -0.000000   0.000000   0.000000   0.000000  -0.000001  -0.000000
              13         14         15         16         17         18
     1  C   -0.007400   0.000072   0.000006  -0.000009  -0.000005   0.000015
     2  C   -0.045692  -0.002302   0.002791   0.000094  -0.000087   0.000006
     3  H    0.001996   0.002510   0.000094   0.000010   0.000000  -0.000009
     4  H    0.001331   0.000042  -0.000087   0.000000   0.000004  -0.000005
     5  C    0.005291   0.000343  -0.000308   0.000000   0.000003   0.000054
     6  C    0.000246   0.000030  -0.000001  -0.000001  -0.000000   0.000026
     7  C   -0.000159  -0.000021   0.000002   0.000000  -0.000000  -0.000000
     8  N   -0.000001  -0.000000   0.000000  -0.000000  -0.000000  -0.000000
     9  N   -0.001125   0.000281  -0.000077  -0.000001  -0.000003   0.000009
    10  N   -0.000007  -0.000000   0.000001  -0.000001  -0.000000   0.000002
    11  C    0.658000  -0.033057  -0.045717   0.001988   0.001336  -0.007398
    12  H   -0.033049   0.002443  -0.002297   0.002508   0.000042   0.000071
    13  C    5.015460   0.390044   0.345491  -0.040133  -0.034007  -0.059512
    14  H    0.390044   0.431489  -0.032636   0.002207  -0.001479  -0.001464
    15  C    0.345491  -0.032636   5.100646   0.400717   0.401084   0.351110
    16  H   -0.040133   0.002207   0.400717   0.443470  -0.014764  -0.034903
    17  H   -0.034007  -0.001479   0.401084  -0.014764   0.448425  -0.041717
    18  C   -0.059512  -0.001464   0.351110  -0.034903  -0.041717   5.115121
    19  C    0.006288  -0.000172  -0.056732  -0.004341  -0.003425   0.327339
    20  C   -0.010401   0.000142  -0.058381  -0.003019   0.005739   0.309224
    21  C   -0.010471   0.003861  -0.058249   0.005385  -0.003203   0.312256
    22  N   -0.003264  -0.000014  -0.002426   0.000042   0.000000  -0.045399
    23  N   -0.001305   0.000866  -0.002280   0.000008   0.000094  -0.048947
    24  N   -0.000035  -0.000001  -0.001921   0.000109   0.000098  -0.052668
              19         20         21         22         23         24
     1  C   -0.000000   0.000054   0.000026   0.000010   0.000002  -0.000000
     2  C    0.000002  -0.000307  -0.000001  -0.000077   0.000001   0.000000
     3  H    0.000000   0.000000  -0.000001  -0.000001  -0.000001  -0.000000
     4  H   -0.000000   0.000003  -0.000000  -0.000003  -0.000000  -0.000000
     5  C    0.000008   0.000707   0.000356   0.000015   0.000083  -0.000000
     6  C    0.000000   0.000355  -0.000001   0.001277   0.000000   0.000000
     7  C    0.000000   0.000008   0.000000   0.000008  -0.000000  -0.000000
     8  N   -0.000000  -0.000000   0.000000   0.000000   0.000000   0.000000
     9  N    0.000008   0.000014   0.001281  -0.002464  -0.000447   0.000000
    10  N   -0.000000   0.000082   0.000000  -0.000444   0.000000   0.000000
    11  C   -0.000158   0.005292   0.000243  -0.001127  -0.000007  -0.000001
    12  H   -0.000021   0.000346   0.000031   0.000283  -0.000000  -0.000000
    13  C    0.006288  -0.010401  -0.010471  -0.003264  -0.001305  -0.000035
    14  H   -0.000172   0.000142   0.003861  -0.000014   0.000866  -0.000001
    15  C   -0.056732  -0.058381  -0.058249  -0.002426  -0.002280  -0.001921
    16  H   -0.004341  -0.003019   0.005385   0.000042   0.000008   0.000109
    17  H   -0.003425   0.005739  -0.003203   0.000000   0.000094   0.000098
    18  C    0.327339   0.309224   0.312256  -0.045399  -0.048947  -0.052668
    19  C    4.592644  -0.074350  -0.074378  -0.003210  -0.003420   0.934446
    20  C   -0.074350   4.628943  -0.081315   0.897919  -0.003303  -0.003437
    21  C   -0.074378  -0.081315   4.619196  -0.003247   0.917712  -0.003213
    22  N   -0.003210   0.897919  -0.003247   6.569569  -0.000077  -0.000143
    23  N   -0.003420  -0.003303   0.917712  -0.000077   6.535963  -0.000146
    24  N    0.934446  -0.003437  -0.003213  -0.000143  -0.000146   6.521488
 Mulliken charges:
               1
     1  C   -0.123197
     2  C   -0.340830
     3  H    0.240623
     4  H    0.241868
     5  C    0.385633
     6  C    0.373691
     7  C    0.359484
     8  N   -0.394572
     9  N   -0.407186
    10  N   -0.394777
    11  C   -0.177558
    12  H    0.236842
    13  C   -0.177586
    14  H    0.236817
    15  C   -0.340830
    16  H    0.240635
    17  H    0.241864
    18  C   -0.123211
    19  C    0.359472
    20  C    0.385684
    21  C    0.373731
    22  N   -0.407228
    23  N   -0.394795
    24  N   -0.394575
 Sum of Mulliken charges =  -0.00000
 Mulliken charges with hydrogens summed into heavy atoms:
               1
     1  C   -0.123197
     2  C    0.141661
     5  C    0.385633
     6  C    0.373691
     7  C    0.359484
     8  N   -0.394572
     9  N   -0.407186
    10  N   -0.394777
    11  C    0.059283
    13  C    0.059231
    15  C    0.141669
    18  C   -0.123211
    19  C    0.359472
    20  C    0.385684
    21  C    0.373731
    22  N   -0.407228
    23  N   -0.394795
    24  N   -0.394575
 Electronic spatial extent (au):  <R**2>=           4388.3502
 Charge=             -0.0000 electrons
 Dipole moment (field-independent basis, Debye):
    X=             -0.0011    Y=             -0.0007    Z=              6.9676  Tot=              6.9676
 Quadrupole moment (field-independent basis, Debye-Ang):
   XX=           -132.8176   YY=           -120.6707   ZZ=           -101.8694
   XY=             -0.3377   XZ=             -0.0035   YZ=             -0.0019
 Traceless Quadrupole moment (field-independent basis, Debye-Ang):
   XX=            -14.3651   YY=             -2.2181   ZZ=             16.5832
   XY=             -0.3377   XZ=             -0.0035   YZ=             -0.0019
 Octapole moment (field-independent basis, Debye-Ang**2):
  XXX=              0.0314  YYY=             -0.0178  ZZZ=             16.7517  XYY=             -0.0534
  XXY=              0.0069  XXZ=             25.0288  XZZ=              0.0001  YZZ=             -0.0007
  YYZ=             28.4364  XYZ=              6.7408
 Hexadecapole moment (field-independent basis, Debye-Ang**3):
 XXXX=          -5777.4644 YYYY=          -1082.7163 ZZZZ=           -728.6085 XXXY=            263.3075
 XXXZ=              0.0040 YYYX=           -109.9873 YYYZ=              0.0054 ZZZX=             -0.0025
 ZZZY=             -0.0152 XXYY=          -1066.9689 XXZZ=           -816.3613 YYZZ=           -289.2765
 XXYZ=              0.0119 YYXZ=             -0.0196 ZZXY=              1.3758
 N-N= 1.107647492411D+03 E-N=-4.043425014369D+03  KE= 7.833836526948D+02
 Calling FoFJK, ICntrl=      2127 FMM=F ISym2X=0 I1Cent= 0 IOpClX= 0 NMat=1 NMatS=1 NMatT=0.
 ***** Axes restored to original set *****
 -------------------------------------------------------------------
 Center     Atomic                   Forces (Hartrees/Bohr)
 Number     Number              X              Y              Z
 -------------------------------------------------------------------
      1        6          -0.000781416    0.001977527   -0.009310373
      2        6          -0.000008765    0.003694857   -0.008979646
      3        1           0.002248482   -0.007426645    0.002881988
      4        1          -0.002436143    0.004975456    0.005216448
      5        6          -0.023694913    0.023817931    0.026311065
      6        6           0.002553861   -0.039606818    0.010013423
      7        6           0.038464738    0.016054254    0.000653477
      8        7          -0.020467052   -0.008346859   -0.001300411
      9        7           0.017000575   -0.010729726   -0.013062457
     10        7          -0.001009731    0.020997782   -0.005836845
     11        6          -0.009342913   -0.001215949   -0.005780550
     12        1          -0.001483941    0.004267998   -0.000813254
     13        6           0.009350231    0.001212068   -0.005770925
     14        1           0.001482705   -0.004268338   -0.000805756
     15        6           0.000005434   -0.003682736   -0.008971233
     16        1          -0.002250424    0.007425478    0.002887280
     17        1           0.002441107   -0.004973052    0.005213985
     18        6           0.000762778   -0.001964153   -0.009316008
     19        6          -0.038472294   -0.016033604    0.000664534
     20        6           0.023652707   -0.023867184    0.026288613
     21        6          -0.002468911    0.039633972    0.010012322
     22        7          -0.016969236    0.010756935   -0.013051164
     23        7           0.000959308   -0.021021083   -0.005841147
     24        7           0.020463813    0.008321890   -0.001303365
 -------------------------------------------------------------------
 Cartesian Forces:  Max     0.039633972 RMS     0.014172068

 GradGradGradGradGradGradGradGradGradGradGradGradGradGradGradGradGradGrad
 Berny optimization.
 FormGI is forming the generalized inverse of G from B-inverse, IUseBI=4.
 Internal  Forces:  Max     0.030768982 RMS     0.009976477
 Search for a local minimum.
 Step number   1 out of a maximum of  109
 All quantities printed in internal units (Hartrees-Bohrs-Radians)
 Mixed Optimization -- RFO/linear search
 Second derivative matrix not updated -- first step.
 ITU=  0
     Eigenvalues ---    0.00230   0.00230   0.00818   0.00819   0.01787
     Eigenvalues ---    0.01787   0.03101   0.04542   0.04542   0.05131
     Eigenvalues ---    0.05131   0.05131   0.05131   0.05131   0.05131
     Eigenvalues ---    0.05131   0.05131   0.05135   0.05135   0.05135
     Eigenvalues ---    0.05135   0.05615   0.05615   0.08662   0.08663
     Eigenvalues ---    0.08719   0.08719   0.08794   0.08794   0.12424
     Eigenvalues ---    0.12424   0.15983   0.15983   0.21966   0.21966
     Eigenvalues ---    0.22004   0.22004   0.25000   0.25000   0.25000
     Eigenvalues ---    0.25000   0.25000   0.25000   0.26779   0.26780
     Eigenvalues ---    0.32798   0.32798   0.34504   0.34505   0.34508
     Eigenvalues ---    0.34508   0.35665   0.35665   0.37250   0.37250
     Eigenvalues ---    0.37357   0.37358   0.37366   0.37366   0.61068
     Eigenvalues ---    1.41827   1.41830   1.41839   1.41842   1.42058
     Eigenvalues ---    1.42063
 RFO step:  Lambda=-3.22419060D-02 EMin= 2.30000000D-03
 Linear search not attempted -- first point.
 Maximum step size (   0.300) exceeded in Quadratic search.
    -- Step size scaled by   0.994
 Iteration  1 RMS(Cart)=  0.34581260 RMS(Int)=  0.01911086
 Iteration  2 RMS(Cart)=  0.10922455 RMS(Int)=  0.00191230
 Iteration  3 RMS(Cart)=  0.00399208 RMS(Int)=  0.00083880
 Iteration  4 RMS(Cart)=  0.00000674 RMS(Int)=  0.00083880
 Iteration  5 RMS(Cart)=  0.00000001 RMS(Int)=  0.00083880
 Variable       Old X    -DE/DX   Delta X   Delta X   Delta X     New X
                                 (Linear)    (Quad)   (Total)
    R1        2.94886   0.01081   0.00000   0.03582   0.03582   2.98468
    R2        2.75298   0.01885   0.00000   0.04617   0.04617   2.79916
    R3        2.75471   0.01908   0.00000   0.04686   0.04686   2.80157
    R4        2.75312   0.01950   0.00000   0.04777   0.04777   2.80089
    R5        2.06480  -0.00787   0.00000  -0.02074  -0.02074   2.04406
    R6        2.06487  -0.00720   0.00000  -0.01896  -0.01896   2.04591
    R7        2.82707   0.01323   0.00000   0.03652   0.03652   2.86359
    R8        2.15426  -0.02379   0.00000  -0.01630  -0.01630   2.13796
    R9        2.15370  -0.02181   0.00000  -0.01492  -0.01492   2.13878
   R10        2.15429  -0.02214   0.00000  -0.01517  -0.01517   2.13912
   R11        2.04609  -0.00410   0.00000  -0.01048  -0.01048   2.03561
   R12        2.50105  -0.00406   0.00000  -0.00628  -0.00628   2.49477
   R13        2.04609  -0.00410   0.00000  -0.01048  -0.01048   2.03560
   R14        2.82709   0.01324   0.00000   0.03653   0.03653   2.86362
   R15        2.06480  -0.00787   0.00000  -0.02074  -0.02074   2.04406
   R16        2.06486  -0.00720   0.00000  -0.01896  -0.01896   2.04590
   R17        2.94889   0.01080   0.00000   0.03578   0.03578   2.98467
   R18        2.75310   0.01951   0.00000   0.04780   0.04780   2.80090
   R19        2.75298   0.01885   0.00000   0.04617   0.04617   2.79915
   R20        2.75471   0.01908   0.00000   0.04686   0.04686   2.80157
   R21        2.15429  -0.02212   0.00000  -0.01516  -0.01516   2.13912
   R22        2.15426  -0.02377   0.00000  -0.01629  -0.01629   2.13796
   R23        2.15371  -0.02183   0.00000  -0.01494  -0.01494   2.13878
    A1        1.90669   0.00984   0.00000   0.03978   0.03957   1.94626
    A2        1.92412  -0.00170   0.00000  -0.00109  -0.00165   1.92246
    A3        1.92209  -0.00721   0.00000  -0.03540  -0.03536   1.88673
    A4        1.91446   0.00096   0.00000   0.02306   0.02234   1.93680
    A5        1.90092  -0.00400   0.00000  -0.02401  -0.02361   1.87731
    A6        1.89539   0.00200   0.00000  -0.00282  -0.00316   1.89223
    A7        1.88994  -0.00970   0.00000  -0.03076  -0.03393   1.85600
    A8        1.89091  -0.01040   0.00000  -0.05073  -0.05027   1.84064
    A9        1.90603   0.03076   0.00000   0.13003   0.12958   2.03561
   A10        1.90431   0.00363   0.00000  -0.01508  -0.01689   1.88742
   A11        1.93467  -0.00500   0.00000   0.00639   0.00511   1.93979
   A12        1.93686  -0.00950   0.00000  -0.04115  -0.03951   1.89735
   A13        3.09975   0.00355   0.00000   0.04222   0.04222   3.14197
   A14        3.15281   0.00531   0.00000   0.06315   0.06315   3.21596
   A15        3.16325   0.00026   0.00000   0.00306   0.00306   3.16631
   A16        3.11153  -0.00125   0.00000  -0.01489  -0.01489   3.09664
   A17        3.11870  -0.00112   0.00000  -0.01338  -0.01338   3.10532
   A18        3.15559   0.00030   0.00000   0.00358   0.00358   3.15917
   A19        2.02169  -0.00054   0.00000   0.00176   0.00036   2.02205
   A20        2.15329   0.00551   0.00000   0.02263   0.02124   2.17454
   A21        2.10673  -0.00472   0.00000  -0.01943  -0.02080   2.08593
   A22        2.10671  -0.00472   0.00000  -0.01943  -0.02080   2.08591
   A23        2.15330   0.00552   0.00000   0.02265   0.02127   2.17457
   A24        2.02170  -0.00054   0.00000   0.00174   0.00034   2.02204
   A25        1.93470  -0.00500   0.00000   0.00634   0.00507   1.93977
   A26        1.93689  -0.00950   0.00000  -0.04111  -0.03947   1.89741
   A27        1.90598   0.03077   0.00000   0.13005   0.12960   2.03558
   A28        1.90430   0.00363   0.00000  -0.01507  -0.01689   1.88741
   A29        1.88993  -0.00970   0.00000  -0.03080  -0.03397   1.85597
   A30        1.89092  -0.01040   0.00000  -0.05071  -0.05025   1.84067
   A31        1.92206  -0.00720   0.00000  -0.03536  -0.03532   1.88674
   A32        1.90666   0.00982   0.00000   0.03968   0.03947   1.94613
   A33        1.92416  -0.00171   0.00000  -0.00111  -0.00167   1.92248
   A34        1.90098  -0.00400   0.00000  -0.02404  -0.02364   1.87734
   A35        1.89531   0.00201   0.00000  -0.00275  -0.00309   1.89222
   A36        1.91450   0.00098   0.00000   0.02310   0.02238   1.93688
   A37        3.11878  -0.00113   0.00000  -0.01344  -0.01344   3.10534
   A38        3.15565   0.00030   0.00000   0.00360   0.00360   3.15925
   A39        3.09980   0.00353   0.00000   0.04199   0.04199   3.14179
   A40        3.15314   0.00528   0.00000   0.06281   0.06281   3.21594
   A41        3.16292   0.00030   0.00000   0.00357   0.00357   3.16649
   A42        3.11121  -0.00122   0.00000  -0.01450  -0.01450   3.09671
    D1        1.08184  -0.00053   0.00000  -0.03264  -0.03357   1.04826
    D2       -3.13812  -0.00734   0.00000  -0.09566  -0.09505   3.05002
    D3       -1.02652  -0.00685   0.00000  -0.09889  -0.09947  -1.12599
    D4       -3.09637   0.00585   0.00000   0.02042   0.01988  -3.07649
    D5       -1.03314  -0.00096   0.00000  -0.04260  -0.04160  -1.07474
    D6        1.07846  -0.00047   0.00000  -0.04583  -0.04602   1.03244
    D7       -1.00522   0.00267   0.00000  -0.00625  -0.00668  -1.01189
    D8        1.05802  -0.00413   0.00000  -0.06927  -0.06815   0.98987
    D9       -3.11357  -0.00364   0.00000  -0.07250  -0.07258   3.09704
   D10       -1.32578  -0.00095   0.00000  -0.02335  -0.02247  -1.34825
   D11        1.75793   0.00391   0.00000   0.07368   0.07505   1.83298
   D12        2.87658  -0.00535   0.00000  -0.07143  -0.07267   2.80391
   D13       -0.32290  -0.00049   0.00000   0.02560   0.02485  -0.29804
   D14        0.75758  -0.00008   0.00000  -0.02865  -0.02903   0.72855
   D15       -2.44189   0.00478   0.00000   0.06838   0.06849  -2.37340
   D16        0.03290  -0.00497   0.00000  -0.07808  -0.07808  -0.04518
   D17       -3.04797  -0.01021   0.00000  -0.18043  -0.17967   3.05554
   D18        3.11390   0.00028   0.00000   0.02427   0.02351   3.13741
   D19        0.03302  -0.00497   0.00000  -0.07808  -0.07808  -0.04506
   D20       -0.32414  -0.00049   0.00000   0.02569   0.02494  -0.29920
   D21       -2.44315   0.00478   0.00000   0.06846   0.06857  -2.37458
   D22        1.75667   0.00391   0.00000   0.07370   0.07507   1.83173
   D23        2.87546  -0.00535   0.00000  -0.07135  -0.07259   2.80286
   D24        0.75644  -0.00008   0.00000  -0.02858  -0.02896   0.72749
   D25       -1.32692  -0.00095   0.00000  -0.02334  -0.02246  -1.34938
   D26       -3.11447  -0.00363   0.00000  -0.07220  -0.07228   3.09644
   D27       -1.02738  -0.00684   0.00000  -0.09867  -0.09925  -1.12663
   D28        1.07765  -0.00046   0.00000  -0.04564  -0.04582   1.03183
   D29       -1.00611   0.00268   0.00000  -0.00603  -0.00645  -1.01257
   D30        1.08098  -0.00053   0.00000  -0.03250  -0.03343   1.04756
   D31       -3.09717   0.00585   0.00000   0.02054   0.02000  -3.07718
   D32        1.05711  -0.00412   0.00000  -0.06904  -0.06793   0.98918
   D33       -3.13898  -0.00733   0.00000  -0.09551  -0.09490   3.04930
   D34       -1.03395  -0.00096   0.00000  -0.04248  -0.04147  -1.07543
         Item               Value     Threshold  Converged?
 Maximum Force            0.030769     0.000450     NO 
 RMS     Force            0.009976     0.000300     NO 
 Maximum Displacement     1.689572     0.001800     NO 
 RMS     Displacement     0.444579     0.001200     NO 
 Predicted change in Energy=-1.996510D-02
 GradGradGradGradGradGradGradGradGradGradGradGradGradGradGradGradGradGrad

                          Input orientation:                          
 ---------------------------------------------------------------------
 Center     Atomic      Atomic             Coordinates (Angstroms)
 Number     Number       Type             X           Y           Z
 ---------------------------------------------------------------------
      1          6           0        2.784790    0.094184   -0.092921
      2          6           0        1.960466    0.144021   -1.439243
      3          1           0        1.984703    1.172617   -1.773035
      4          1           0        2.524169   -0.452795   -2.145064
      5          6           0        2.192975    0.976418    0.939318
      6          6           0        2.881920   -1.302376    0.395004
      7          6           0        4.153736    0.588780   -0.372544
      8          7           0        5.187044    0.974047   -0.627909
      9          7           0        1.783462    1.713812    1.693323
     10          7           0        2.971670   -2.384533    0.714123
     11          6           0        0.539553   -0.379805   -1.385503
     12          1           0        0.433861   -1.451803   -1.383136
     13          6           0       -0.539941    0.380166   -1.385949
     14          1           0       -0.434223    1.452159   -1.384391
     15          6           0       -1.960874   -0.143663   -1.439525
     16          1           0       -1.985151   -1.172188   -1.773531
     17          1           0       -2.524773    0.453274   -2.145078
     18          6           0       -2.784861   -0.094205   -0.092986
     19          6           0       -4.154132   -0.587929   -0.372576
     20          6           0       -2.193151   -0.977443    0.938449
     21          6           0       -2.881170    1.302106    0.395821
     22          7           0       -1.783546   -1.715598    1.691662
     23          7           0       -2.970495    2.384088    0.715645
     24          7           0       -5.187715   -0.972456   -0.627948
 ---------------------------------------------------------------------
                    Distance matrix (angstroms):
                    1          2          3          4          5
     1  C    0.000000
     2  C    1.579424   0.000000
     3  H    2.150800   1.081672   0.000000
     4  H    2.139720   1.082651   1.752539   0.000000
     5  C    1.481249   2.530711   2.727403   3.415516   0.000000
     6  C    1.482526   2.511097   3.410423   2.702169   2.442095
     7  C    1.482170   2.479132   2.647064   2.623394   2.390779
     8  N    2.613656   3.428997   3.406719   3.380613   3.379446
     9  N    2.610847   3.508354   3.514118   4.469457   1.131360
    10  N    2.613480   3.471758   4.451221   3.479485   3.457321
    11  C    2.633729   1.515346   2.156073   2.126254   3.158788
    12  H    3.095416   2.209145   3.073225   2.438839   3.792695
    13  C    3.578763   2.512098   2.674254   3.264788   3.637474
    14  H    3.724787   2.729243   2.465845   3.599938   3.539509
    15  C    4.938749   3.931878   4.172696   4.550709   4.916089
    16  H    5.213491   4.172774   4.610623   4.581433   5.425200
    17  H    5.703662   4.550956   4.581620   5.129598   5.660771
    18  C    5.572836   4.938348   5.213074   5.703104   5.195261
    19  C    6.977975   6.249947   6.538050   6.910838   6.667385
    20  C    5.195383   4.915652   5.424884   5.660072   4.801633
    21  C    5.813867   5.305662   5.328923   6.225227   5.113552
    22  N    5.227785   5.222870   5.877551   5.905213   4.860627
    23  N    6.246659   5.828878   5.675841   6.813434   5.356584
    24  N    8.061316   7.280193   7.573384   7.876855   7.792883
                    6          7          8          9         10
     6  C    0.000000
     7  C    2.404812   0.000000
     8  N    3.397360   1.131975   0.000000
     9  N    3.462605   3.339416   4.185659   0.000000
    10  N    1.131793   3.379159   4.241344   4.378025   0.000000
    11  C    3.083509   3.876411   4.899596   3.925521   3.787156
    12  H    3.029373   4.361507   5.389607   4.615967   3.421834
    13  C    4.208548   4.806361   5.807381   4.081511   4.938144
    14  H    4.663745   4.776885   5.692056   3.802488   5.542930
    15  C    5.306671   6.250070   7.280160   5.223505   5.830067
    16  H    5.329904   6.538326   7.573583   5.877969   5.676995
    17  H    6.226287   6.911058   7.876873   5.906198   6.814621
    18  C    5.814655   6.977732   8.060929   5.227754   6.247773
    19  C    7.113764   8.390788   9.474310   6.694848   7.428711
    20  C    5.114417   6.667438   7.792886   4.860673   5.357760
    21  C    6.324281   7.112603   8.139516   4.859199   6.924475
    22  N    4.859902   6.694955   7.823281   4.948172   4.900523
    23  N    6.924131   7.427109   8.386823   4.899514   7.618994
    24  N    8.140902   9.474460  10.555781   7.823149   8.388723
                   11         12         13         14         15
    11  C    0.000000
    12  H    1.077198   0.000000
    13  C    1.320176   2.074707   0.000000
    14  H    2.074690   3.030936   1.077195   0.000000
    15  C    2.512134   2.729316   1.515361   2.209151   0.000000
    16  H    2.674429   2.466215   2.156074   3.073110   1.081672
    17  H    3.265129   3.600471   2.126307   2.438609   1.082646
    18  C    3.578253   3.723940   2.633714   3.095879   1.579420
    19  C    4.806248   4.776735   3.876405   4.361589   2.479140
    20  C    3.636702   3.537792   3.158961   3.793729   2.530593
    21  C    4.207527   4.662417   3.083185   3.029722   2.511112
    22  N    4.080451   3.800114   3.925617   4.617084   3.508099
    23  N    4.937040   5.541533   3.786819   3.422180   3.471832
    24  N    5.807472   5.692294   4.899588   5.389495   3.429003
                   16         17         18         19         20
    16  H    0.000000
    17  H    1.752531   0.000000
    18  C    2.150770   2.139734   0.000000
    19  C    2.647359   2.623105   1.482173   0.000000
    20  C    2.726908   3.415416   1.481246   2.390806   0.000000
    21  C    3.410435   2.702535   1.482529   2.404807   2.442163
    22  N    3.513332   4.469228   2.610846   3.339520   1.131361
    23  N    4.451291   3.480006   2.613481   3.379069   3.457427
    24  N    3.407150   3.380185   2.613660   1.131976   3.379503
                   21         22         23         24
    21  C    0.000000
    22  N    3.462733   0.000000
    23  N    1.131792   4.378229   0.000000
    24  N    3.397335   4.185836   4.241190   0.000000
 Stoichiometry    C12H6N6
 Framework group  C1[X(C12H6N6)]
 Deg. of freedom    66
 Full point group                 C1      NOp   1
 Largest Abelian subgroup         C1      NOp   1
 Largest concise Abelian subgroup C1      NOp   1
                         Standard orientation:                         
 ---------------------------------------------------------------------
 Center     Atomic      Atomic             Coordinates (Angstroms)
 Number     Number       Type             X           Y           Z
 ---------------------------------------------------------------------
      1          6           0        2.786404   -0.002339    0.016521
      2          6           0        1.964170   -0.079325    1.362844
      3          1           0        2.022304   -1.106563    1.696636
      4          1           0        2.507891    0.535750    2.068664
      5          6           0        2.223995   -0.903605   -1.015717
      6          6           0        2.837440    1.396664   -0.471403
      7          6           0        4.170911   -0.451536    0.296145
      8          7           0        5.216359   -0.802528    0.551510
      9          7           0        1.839015   -1.654098   -1.769722
     10          7           0        2.891465    2.481191   -0.790522
     11          6           0        0.526761    0.397373    1.309104
     12          1           0        0.385786    1.465304    1.306737
     13          6           0       -0.527092   -0.397773    1.309550
     14          1           0       -0.386091   -1.465699    1.307992
     15          6           0       -1.964522    0.078926    1.363126
     16          1           0       -2.022694    1.106092    1.697132
     17          1           0       -2.508435   -0.536276    2.068679
     18          6           0       -2.786431    0.002331    0.016587
     19          6           0       -4.171235    0.450646    0.296177
     20          6           0       -2.224160    0.904596   -1.014848
     21          6           0       -2.836655   -1.396396   -0.472220
     22          7           0       -1.839113    1.655854   -1.768061
     23          7           0       -2.890261   -2.480735   -0.792044
     24          7           0       -5.216933    0.800889    0.551549
 ---------------------------------------------------------------------
 Rotational constants (GHZ):           0.8440331           0.2126806           0.2040366
 Standard basis: GTBas1 (6D, 7F)
 There are   282 symmetry adapted cartesian basis functions of A   symmetry.
 There are   282 symmetry adapted basis functions of A   symmetry.
   282 basis functions,   528 primitive gaussians,   282 cartesian basis functions
    60 alpha electrons       60 beta electrons
       nuclear repulsion energy      1052.7280829549 Hartrees.
 NAtoms=   24 NActive=   24 NUniq=   24 SFac= 1.00D+00 NAtFMM=   60 NAOKFM=F Big=F
 Integral buffers will be    131072 words long.
 Raffenetti 1 integral format.
 Two-electron integral symmetry is turned on.
 One-electron integrals computed using PRISM.
 NBasis=   282 RedAO= T EigKep=  6.65D-04  NBF=   282
 NBsUse=   282 1.00D-06 EigRej= -1.00D+00 NBFU=   282
 Initial guess from the checkpoint file:  "/home/artemiy/opt/gaussian/scr/Gau-121147.chk"
 B after Tr=    -0.000000   -0.000000    0.000000
         Rot=    0.999889    0.000009    0.000001   -0.014895 Ang=   1.71 deg.
 ExpMin= 1.61D-01 ExpMax= 4.17D+03 ExpMxC= 6.27D+02 IAcc=2 IRadAn=         4 AccDes= 0.00D+00
 Harris functional with IExCor=  205 and IRadAn=       4 diagonalized for initial guess.
 HarFok:  IExCor=  205 AccDes= 0.00D+00 IRadAn=         4 IDoV= 1 UseB2=F ITyADJ=14
 ICtDFT=  3500011 ScaDFX=  1.000000  1.000000  1.000000  1.000000
 FoFCou: FMM=F IPFlag=           0 FMFlag=      100000 FMFlg1=           0
         NFxFlg=           0 DoJE=T BraDBF=F KetDBF=T FulRan=T
         wScrn=  0.000000 ICntrl=       500 IOpCl=  0 I1Cent=   200000004 NGrid=           0
         NMat0=    1 NMatS0=      1 NMatT0=    0 NMatD0=    1 NMtDS0=    0 NMtDT0=    0
 Petite list used in FoFCou.
 Keep R1 ints in memory in canonical form, NReq=807478833.
 Requested convergence on RMS density matrix=1.00D-08 within 128 cycles.
 Requested convergence on MAX density matrix=1.00D-06.
 Requested convergence on             energy=1.00D-06.
 No special actions if energy rises.
 SCF Done:  E(RHF) =  -784.484582123     A.U. after   15 cycles
            NFock= 15  Conv=0.75D-08     -V/T= 2.0016
 Calling FoFJK, ICntrl=      2127 FMM=F ISym2X=0 I1Cent= 0 IOpClX= 0 NMat=1 NMatS=1 NMatT=0.
 ***** Axes restored to original set *****
 -------------------------------------------------------------------
 Center     Atomic                   Forces (Hartrees/Bohr)
 Number     Number              X              Y              Z
 -------------------------------------------------------------------
      1        6          -0.005028584   -0.002603425   -0.002861513
      2        6          -0.001654228    0.000730729    0.000305781
      3        1          -0.000640302    0.000180581   -0.000057326
      4        1           0.000848979    0.001390688   -0.001087963
      5        6           0.001835628   -0.002404026   -0.003429088
      6        6          -0.000224685    0.003602031   -0.000002565
      7        6          -0.001071507   -0.001003954   -0.001163414
      8        7           0.001286103    0.000492568   -0.000300603
      9        7          -0.003470854    0.000718522    0.002310115
     10        7          -0.000997069   -0.001997975    0.000676928
     11        6           0.003388380   -0.003214320    0.005208853
     12        1           0.000755983   -0.000574400    0.000397800
     13        6          -0.003386912    0.003210867    0.005211589
     14        1          -0.000757520    0.000575123    0.000398844
     15        6           0.001656282   -0.000734457    0.000303140
     16        1           0.000636207   -0.000180334   -0.000060352
     17        1          -0.000843389   -0.001386082   -0.001088379
     18        6           0.005027317    0.002604263   -0.002864468
     19        6           0.001073404    0.001005088   -0.001161393
     20        6          -0.001826704    0.002411697   -0.003420691
     21        6           0.000210922   -0.003612803   -0.000001688
     22        7           0.003463550   -0.000718590    0.002308368
     23        7           0.001003903    0.002001393    0.000677596
     24        7          -0.001284900   -0.000493185   -0.000299570
 -------------------------------------------------------------------
 Cartesian Forces:  Max     0.005211589 RMS     0.002112588

 GradGradGradGradGradGradGradGradGradGradGradGradGradGradGradGradGradGrad
 Berny optimization.
 Using GEDIIS/GDIIS optimizer.
 FormGI is forming the generalized inverse of G from B-inverse, IUseBI=4.
 Internal  Forces:  Max     0.014108128 RMS     0.003453782
 Search for a local minimum.
 Step number   2 out of a maximum of  109
 All quantities printed in internal units (Hartrees-Bohrs-Radians)
 Mixed Optimization -- RFO/linear search
 Update second derivatives using D2CorX and points    1    2
 DE= -5.97D-03 DEPred=-2.00D-02 R= 2.99D-01
 Trust test= 2.99D-01 RLast= 4.87D-01 DXMaxT set to 3.00D-01
 ITU=  0  0
 Use linear search instead of GDIIS.
     Eigenvalues ---    0.00230   0.00245   0.00817   0.00819   0.01771
     Eigenvalues ---    0.01887   0.03207   0.03780   0.03890   0.05120
     Eigenvalues ---    0.05131   0.05131   0.05131   0.05131   0.05131
     Eigenvalues ---    0.05131   0.05132   0.05135   0.05135   0.05135
     Eigenvalues ---    0.05283   0.05495   0.05796   0.08327   0.08815
     Eigenvalues ---    0.09069   0.09073   0.09809   0.09829   0.13203
     Eigenvalues ---    0.13223   0.15993   0.16010   0.21917   0.22002
     Eigenvalues ---    0.22094   0.24441   0.24771   0.25000   0.25000
     Eigenvalues ---    0.25000   0.25000   0.25877   0.26779   0.29336
     Eigenvalues ---    0.32798   0.33633   0.34505   0.34506   0.34508
     Eigenvalues ---    0.35007   0.35665   0.35716   0.36880   0.37250
     Eigenvalues ---    0.37313   0.37357   0.37366   0.37671   0.61031
     Eigenvalues ---    1.38885   1.41828   1.41841   1.41864   1.41992
     Eigenvalues ---    1.42060
 RFO step:  Lambda=-4.37389930D-03 EMin= 2.29999996D-03
 Quartic linear search produced a step of -0.40819.
 Iteration  1 RMS(Cart)=  0.28398876 RMS(Int)=  0.01530724
 Iteration  2 RMS(Cart)=  0.03195072 RMS(Int)=  0.00029942
 Iteration  3 RMS(Cart)=  0.00041052 RMS(Int)=  0.00025925
 Iteration  4 RMS(Cart)=  0.00000011 RMS(Int)=  0.00025925
 Variable       Old X    -DE/DX   Delta X   Delta X   Delta X     New X
                                 (Linear)    (Quad)   (Total)
    R1        2.98468  -0.00797  -0.01462   0.00118  -0.01344   2.97124
    R2        2.79916  -0.00112  -0.01885   0.02354   0.00470   2.80385
    R3        2.80157  -0.00137  -0.01913   0.02351   0.00438   2.80595
    R4        2.80089   0.00030  -0.01950   0.02670   0.00720   2.80809
    R5        2.04406   0.00018   0.00847  -0.01099  -0.00252   2.04154
    R6        2.04591   0.00038   0.00774  -0.00965  -0.00191   2.04400
    R7        2.86359  -0.00864  -0.01491   0.00403  -0.01087   2.85272
    R8        2.13796   0.00327   0.00665  -0.00820  -0.00155   2.13641
    R9        2.13878   0.00202   0.00609  -0.00792  -0.00183   2.13695
   R10        2.13912   0.00141   0.00619  -0.00833  -0.00213   2.13699
   R11        2.03561   0.00047   0.00428  -0.00494  -0.00066   2.03495
   R12        2.49477  -0.00138   0.00256  -0.00493  -0.00237   2.49240
   R13        2.03560   0.00047   0.00428  -0.00494  -0.00066   2.03494
   R14        2.86362  -0.00864  -0.01491   0.00404  -0.01087   2.85274
   R15        2.04406   0.00018   0.00847  -0.01098  -0.00252   2.04154
   R16        2.04590   0.00038   0.00774  -0.00965  -0.00192   2.04399
   R17        2.98467  -0.00797  -0.01461   0.00118  -0.01343   2.97124
   R18        2.80090   0.00030  -0.01951   0.02671   0.00720   2.80810
   R19        2.79915  -0.00112  -0.01885   0.02354   0.00470   2.80384
   R20        2.80157  -0.00137  -0.01913   0.02350   0.00437   2.80595
   R21        2.13912   0.00141   0.00619  -0.00832  -0.00213   2.13699
   R22        2.13796   0.00327   0.00665  -0.00820  -0.00155   2.13642
   R23        2.13878   0.00203   0.00610  -0.00793  -0.00183   2.13694
    A1        1.94626  -0.00470  -0.01615   0.00587  -0.01027   1.93599
    A2        1.92246   0.00034   0.00068  -0.00407  -0.00324   1.91923
    A3        1.88673  -0.00069   0.01443  -0.01265   0.00178   1.88851
    A4        1.93680  -0.00036  -0.00912  -0.00339  -0.01235   1.92445
    A5        1.87731   0.00420   0.00964   0.00550   0.01499   1.89230
    A6        1.89223   0.00147   0.00129   0.00885   0.01028   1.90251
    A7        1.85600   0.00498   0.01385  -0.01170   0.00309   1.85910
    A8        1.84064   0.00372   0.02052  -0.00976   0.01071   1.85135
    A9        2.03561  -0.01411  -0.05289   0.02301  -0.02984   2.00577
   A10        1.88742  -0.00212   0.00690   0.00384   0.01144   1.89886
   A11        1.93979   0.00307  -0.00209  -0.00616  -0.00799   1.93179
   A12        1.89735   0.00493   0.01613  -0.00023   0.01536   1.91271
   A13        3.14197  -0.00304  -0.01723  -0.02301  -0.04024   3.10173
   A14        3.21596  -0.00489  -0.02578  -0.03814  -0.06392   3.15204
   A15        3.16631  -0.00246  -0.00125  -0.02595  -0.02720   3.13911
   A16        3.09664  -0.00040   0.00608  -0.00788  -0.00180   3.09484
   A17        3.10532   0.00002   0.00546  -0.00300   0.00246   3.10779
   A18        3.15917  -0.00004  -0.00146   0.00045  -0.00101   3.15816
   A19        2.02205   0.00172  -0.00015   0.00397   0.00342   2.02547
   A20        2.17454  -0.00499  -0.00867  -0.00219  -0.01125   2.16328
   A21        2.08593   0.00328   0.00849  -0.00037   0.00773   2.09367
   A22        2.08591   0.00329   0.00849  -0.00036   0.00774   2.09365
   A23        2.17457  -0.00499  -0.00868  -0.00218  -0.01126   2.16331
   A24        2.02204   0.00172  -0.00014   0.00395   0.00342   2.02546
   A25        1.93977   0.00307  -0.00207  -0.00616  -0.00798   1.93179
   A26        1.89741   0.00493   0.01611  -0.00026   0.01532   1.91273
   A27        2.03558  -0.01410  -0.05290   0.02303  -0.02983   2.00575
   A28        1.88741  -0.00212   0.00689   0.00385   0.01144   1.89885
   A29        1.85597   0.00498   0.01386  -0.01170   0.00312   1.85908
   A30        1.84067   0.00372   0.02051  -0.00976   0.01070   1.85136
   A31        1.88674  -0.00069   0.01442  -0.01263   0.00179   1.88852
   A32        1.94613  -0.00468  -0.01611   0.00587  -0.01023   1.93590
   A33        1.92248   0.00034   0.00068  -0.00408  -0.00324   1.91924
   A34        1.87734   0.00419   0.00965   0.00548   0.01498   1.89232
   A35        1.89222   0.00147   0.00126   0.00887   0.01028   1.90249
   A36        1.93688  -0.00037  -0.00914  -0.00340  -0.01238   1.92450
   A37        3.10534   0.00001   0.00549  -0.00302   0.00246   3.10780
   A38        3.15925  -0.00004  -0.00147   0.00042  -0.00105   3.15820
   A39        3.14179  -0.00302  -0.01714  -0.02293  -0.04007   3.10172
   A40        3.21594  -0.00488  -0.02564  -0.03816  -0.06380   3.15215
   A41        3.16649  -0.00247  -0.00146  -0.02596  -0.02742   3.13907
   A42        3.09671  -0.00041   0.00592  -0.00787  -0.00195   3.09476
    D1        1.04826   0.00087   0.01370   0.13549   0.14953   1.19779
    D2        3.05002   0.00233   0.03880   0.13030   0.16884  -3.06432
    D3       -1.12599   0.00267   0.04060   0.13697   0.17774  -0.94825
    D4       -3.07649  -0.00265  -0.00811   0.13234   0.12448  -2.95202
    D5       -1.07474  -0.00119   0.01698   0.12715   0.14379  -0.93094
    D6        1.03244  -0.00085   0.01879   0.13382   0.15269   1.18513
    D7       -1.01189  -0.00109   0.00272   0.13321   0.13611  -0.87578
    D8        0.98987   0.00037   0.02782   0.12803   0.15543   1.14529
    D9        3.09704   0.00071   0.02962   0.13470   0.16433  -3.02182
   D10       -1.34825   0.00055   0.00917   0.03999   0.04890  -1.29936
   D11        1.83298   0.00013  -0.03064  -0.00188  -0.03288   1.80010
   D12        2.80391   0.00210   0.02966   0.04329   0.07330   2.87722
   D13       -0.29804   0.00168  -0.01015   0.00143  -0.00848  -0.30652
   D14        0.72855  -0.00024   0.01185   0.04242   0.05434   0.78289
   D15       -2.37340  -0.00066  -0.02796   0.00055  -0.02744  -2.40084
   D16       -0.04518   0.00102   0.03187   0.01545   0.04733   0.00215
   D17        3.05554   0.00141   0.07334   0.05881   0.13199  -3.09566
   D18        3.13741   0.00063  -0.00960  -0.02793  -0.03736   3.10004
   D19       -0.04506   0.00102   0.03187   0.01543   0.04730   0.00224
   D20       -0.29920   0.00168  -0.01018   0.00147  -0.00847  -0.30767
   D21       -2.37458  -0.00066  -0.02799   0.00060  -0.02742  -2.40200
   D22        1.83173   0.00013  -0.03064  -0.00181  -0.03282   1.79891
   D23        2.80286   0.00210   0.02963   0.04331   0.07329   2.87615
   D24        0.72749  -0.00024   0.01182   0.04244   0.05434   0.78182
   D25       -1.34938   0.00055   0.00917   0.04003   0.04893  -1.30045
   D26        3.09644   0.00071   0.02950   0.13450   0.16400  -3.02275
   D27       -1.12663   0.00268   0.04051   0.13676   0.17744  -0.94919
   D28        1.03183  -0.00085   0.01871   0.13359   0.15237   1.18420
   D29       -1.01257  -0.00109   0.00263   0.13303   0.13584  -0.87673
   D30        1.04756   0.00088   0.01364   0.13529   0.14927   1.19683
   D31       -3.07718  -0.00265  -0.00816   0.13212   0.12421  -2.95296
   D32        0.98918   0.00037   0.02773   0.12785   0.15516   1.14434
   D33        3.04930   0.00234   0.03874   0.13011   0.16859  -3.06529
   D34       -1.07543  -0.00119   0.01693   0.12694   0.14353  -0.93190
         Item               Value     Threshold  Converged?
 Maximum Force            0.014108     0.000450     NO 
 RMS     Force            0.003454     0.000300     NO 
 Maximum Displacement     1.025353     0.001800     NO 
 RMS     Displacement     0.296667     0.001200     NO 
 Predicted change in Energy=-5.181705D-04
 GradGradGradGradGradGradGradGradGradGradGradGradGradGradGradGradGradGrad

                          Input orientation:                          
 ---------------------------------------------------------------------
 Center     Atomic      Atomic             Coordinates (Angstroms)
 Number     Number       Type             X           Y           Z
 ---------------------------------------------------------------------
      1          6           0        2.665901   -0.013424   -0.080926
      2          6           0        1.952958    0.099963   -1.477714
      3          1           0        2.000926    1.140718   -1.763477
      4          1           0        2.552070   -0.478853   -2.167624
      5          6           0        1.871094    0.659593    0.975859
      6          6           0        2.877518   -1.441629    0.265787
      7          6           0        3.986046    0.661888   -0.177386
      8          7           0        4.982626    1.184247   -0.290445
      9          7           0        1.240869    1.193628    1.747706
     10          7           0        3.018159   -2.542415    0.483171
     11          6           0        0.527334   -0.395667   -1.506343
     12          1           0        0.397751   -1.464506   -1.486495
     13          6           0       -0.527720    0.395799   -1.506809
     14          1           0       -0.398120    1.464649   -1.487892
     15          6           0       -1.953375   -0.099767   -1.477920
     16          1           0       -2.001462   -1.140485   -1.763797
     17          1           0       -2.552629    0.479151   -2.167613
     18          6           0       -2.665967    0.013463   -0.080936
     19          6           0       -3.986732   -0.660625   -0.177512
     20          6           0       -1.871479   -0.660899    0.975227
     21          6           0       -2.876273    1.441651    0.266637
     22          7           0       -1.241546   -1.196034    1.746553
     23          7           0       -3.015823    2.542454    0.484624
     24          7           0       -4.983807   -1.182021   -0.290669
 ---------------------------------------------------------------------
                    Distance matrix (angstroms):
                    1          2          3          4          5
     1  C    0.000000
     2  C    1.572311   0.000000
     3  H    2.145977   1.080338   0.000000
     4  H    2.141002   1.081637   1.757869   0.000000
     5  C    1.483734   2.517918   2.784296   3.411931   0.000000
     6  C    1.484844   2.504219   3.399241   2.637108   2.435617
     7  C    1.485979   2.477914   2.585665   2.705296   2.408942
     8  N    2.616396   3.429894   3.325997   3.492464   3.400062
     9  N    2.613730   3.479440   3.592895   4.454913   1.130542
    10  N    2.614973   3.458596   4.432568   3.391495   3.436765
    11  C    2.598344   1.509593   2.144311   2.131611   3.013403
    12  H    3.037395   2.205971   3.071495   2.465063   3.570116
    13  C    3.521338   2.498425   2.648553   3.269067   3.462303
    14  H    3.681370   2.718462   2.436453   3.597618   3.444927
    15  C    4.826672   3.911436   4.154136   4.573667   4.606976
[...]
 0.52189571,-0.00000493,-0.00007139,-0.00002352,0.00013210,0.00019303,0
 .00018091,0.00013554,0.00023845,-0.00002472,-0.00009584,0.00004944,-0.
 00005360,0.00002724,-0.00001247,0.00001324,-0.00001664,-0.00006253,-0.
 00001241,-0.00000169,0.00001160,-0.00000430,-0.00000940,-0.00000080,0.
 00000118,-0.00000786,0.00002305,-0.00001955,0.00003277,0.00005366,0.00
 000958,0.00175584,-0.00104487,0.00033285,-0.00079706,0.00077928,-0.000
 05663,0.00348148,-0.03715096,-0.00445737,-0.00621568,-0.00178177,-0.00
 030034,-0.06190021,0.01552011,0.00048869,0.06763664,-0.00000168,-0.000
 02291,-0.00001911,-0.00002924,0.00048808,0.00022245,0.00023844,0.00005
 475,-0.00001075,-0.00009898,-0.00002860,-0.00002343,0.00001778,-0.0000
 0761,0.00001384,-0.00000939,-0.00003209,0.00000194,-0.00000055,0.00000
 054,-0.00000921,-0.00000984,0.00000067,0.00000438,-0.00001274,0.000024
 65,-0.00002192,0.00001030,0.00002403,-0.00000321,0.00179336,0.00124217
 ,0.00024772,-0.00043940,0.00097079,-0.00020784,0.00071658,-0.01362361,
 -0.00076567,-0.00214130,0.00044753,-0.00032507,0.01569263,-0.35353087,
 -0.03840286,-0.01656258,0.37685920,-0.00003939,-0.00004044,-0.00001232
 ,-0.00004274,0.00003206,-0.00005787,0.00002481,0.00001076,0.00000706,0
 .00006840,0.00001877,0.00000906,-0.00002838,0.00000042,0.00000119,-0.0
 0001861,-0.00001326,0.00000608,-0.00000411,-0.00000608,0.00001871,0.00
 001876,0.00000920,-0.00000584,0.00001477,0.00001952,-0.00000767,0.0000
 4103,0.00001111,-0.00001105,0.00031423,0.00021043,-0.00039472,-0.00014
 223,0.00001269,0.00031224,0.00037949,-0.00018894,0.00016284,0.00038219
 ,-0.00015232,0.00144193,-0.00099144,-0.03311978,-0.06423655,-0.0067163
 5,0.04144274,0.06763990,0.00030547,0.00000100,0.00010691,-0.00037700,0
 .00104035,0.00299016,-0.00009582,-0.00009894,-0.00006844,-0.00089034,-
 0.00037300,-0.00018293,0.00003801,0.00004546,0.00002043,0.00004348,-0.
 00003914,0.00002224,0.00004147,0.00002728,-0.00003571,-0.00005868,-0.0
 0002990,-0.00000414,0.00000427,-0.00002918,-0.00006116,-0.00003612,0.0
 0003141,-0.00003709,-0.00293232,-0.00440932,-0.00037551,0.00009534,-0.
 00012998,-0.00126253,-0.02056948,0.01611826,-0.02497980,0.00120803,-0.
 00043383,0.00085645,-0.14484100,0.06385026,-0.12346785,-0.00042593,0.0
 0041454,-0.00045993,0.15918093,0.00008485,-0.00005746,0.00000082,-0.00
 019636,0.00074101,0.00113428,0.00004942,-0.00002860,-0.00001879,-0.000
 37308,-0.00017090,-0.00007343,0.00001141,0.00002674,0.00000031,0.00001
 410,-0.00003159,0.00001736,0.00000519,0.00001114,-0.00000309,-0.000009
 14,-0.00001065,-0.00000428,0.00000370,-0.00002350,-0.00001068,0.000012
 49,0.00001843,-0.00000994,-0.00148502,-0.00125404,0.00016035,-0.000154
 34,0.00023517,0.00010410,-0.00910533,0.00907724,-0.01400812,0.00091051
 ,0.00050616,-0.00003848,0.06172640,-0.11002715,0.08686499,0.01908760,-
 0.01129066,0.02795767,-0.06726778,0.10860280,-0.00003897,-0.00000407,-
 0.00004981,-0.00006783,0.00002458,-0.00066626,0.00005361,0.00002341,0.
 00000906,0.00018280,0.00007336,0.00002253,0.00000299,-0.00002194,-0.00
 003453,-0.00001272,0.00002035,-0.00000794,-0.00000908,-0.00000458,0.00
 000712,0.00001013,0.00000222,0.00000434,-0.00003670,-0.00001679,0.0000
 3996,0.00000023,-0.00001443,0.00002394,0.00063253,-0.00024886,0.000029
 13,0.00001202,0.00004789,0.00029626,0.00068797,-0.00109625,0.00417762,
 -0.00040511,-0.00017072,0.00019022,-0.11694430,0.08410749,-0.21672572,
 0.00428455,-0.00179535,0.00686433,0.12391966,-0.09348111,0.23808390,-0
 .00140494,-0.00035681,0.00041955,-0.00010902,0.00058708,-0.00316351,-0
 .00000494,-0.00000170,0.00003940,0.00030549,0.00008483,0.00003898,-0.0
 0024811,0.00013774,0.00030074,0.00000949,-0.00018365,0.00003556,-0.000
 11051,0.00005954,-0.00034720,-0.00000503,-0.00003055,0.00004149,0.0004
 9890,0.00004175,-0.00013093,0.00011581,0.00008271,-0.00008828,-0.00211
 669,-0.00436402,0.00029526,-0.00002366,0.00011451,0.00178214,-0.022174
 78,0.00992285,0.02999881,0.00053345,-0.00065343,-0.00061396,-0.0991459
 7,0.00526080,0.02722125,-0.00296580,0.00050634,0.00509922,0.00910181,-
 0.00287138,-0.01393858,0.54188445,-0.00035662,0.00022458,-0.00002113,0
 .00012526,0.00045373,-0.00088310,-0.00007140,-0.00002295,0.00004044,0.
 00000105,-0.00005747,0.00000407,0.00005440,0.00005346,0.00000373,0.000
 08986,0.00001652,-0.00000817,-0.00002305,0.00002583,-0.00014981,-0.000
 04505,-0.00007160,0.00003961,0.00011726,-0.00021455,0.00013821,-0.0001
 2338,-0.00008306,0.00004740,-0.00088225,-0.00139654,-0.00005477,0.0001
 4962,0.00013889,0.00002687,-0.00385205,0.00497239,0.01337445,-0.000968
 16,-0.00044114,0.00013368,0.00233263,-0.09283409,-0.00689583,0.0192936
 7,-0.00388708,-0.03374941,-0.00810258,0.00236160,0.01288705,0.00920893
 ,0.58227793,-0.00041966,0.00002117,0.00016492,0.00008721,0.00012359,0.
 00011405,0.00002349,0.00001911,-0.00001229,-0.00010692,-0.00000082,-0.
 00004980,-0.00007545,0.00002593,0.00007912,0.00000803,-0.00005371,-0.0
 0001304,-0.00000261,-0.00000307,-0.00009027,-0.00000047,0.00000194,-0.
 00001145,0.00025233,0.00008922,-0.00009900,0.00002852,0.00001136,-0.00
 006900,-0.00280800,0.00110817,-0.00107386,-0.00003556,0.00003251,0.000
 27249,0.00755835,0.00191084,0.00199483,-0.00029554,0.00000589,0.000200
 23,0.01962949,-0.01111702,-0.13088404,0.00386891,-0.00033550,-0.008946
 19,0.01853911,-0.00757296,-0.02934151,0.06409459,-0.01858523,0.4878864
 5,-0.00011049,-0.00002304,0.00000259,-0.00003733,0.00007755,-0.0003541
 1,-0.00000169,-0.00000055,0.00000411,0.00004147,0.00000519,0.00000908,
 -0.00001191,0.00000787,0.00001041,0.00000614,-0.00001107,0.00000325,-0
 .00001003,0.00000677,-0.00003010,-0.00000282,-0.00000638,0.00000847,0.
 00002265,-0.00001513,0.00000864,0.00000301,0.00000149,0.00000292,-0.00
 006341,-0.00025521,0.00004022,-0.00003597,0.00005434,0.00014375,-0.001
 36897,0.00115194,0.00359988,0.00012948,-0.00007102,-0.00010659,-0.0300
 5152,-0.00841361,0.00918430,0.00043912,-0.00027588,-0.00133535,0.00133
 551,-0.00029063,-0.00164163,-0.25718265,-0.07929159,-0.02913442,1.6094
 7343,0.00005939,0.00002576,0.00000312,-0.00008853,-0.00011151,0.000201
 80,0.00001160,0.00000053,0.00000608,0.00002727,0.00001114,0.00000458,-
 0.00001815,-0.00001080,-0.00000214,-0.00001900,0.00000888,-0.00000226,
 0.00000676,-0.00002195,0.00004702,0.00002682,0.00001776,-0.00001155,0.
 00002446,0.00003953,-0.00001216,0.00001869,-0.00000807,-0.00000359,0.0
 0007721,0.00038205,0.00002189,0.00000143,0.00001738,-0.00013388,0.0001
 1823,-0.00012415,-0.00166789,0.00033795,0.00006745,-0.00008821,0.00154
 683,0.00385883,0.00573686,0.00163780,0.00040156,-0.00052727,-0.0007303
 6,-0.00000723,-0.00014710,-0.07720325,-0.11499630,-0.01138347,0.659032
 91,0.41922408,0.00034723,0.00014987,-0.00009022,-0.00012502,-0.0003718
 2,0.00073620,0.00000431,0.00000920,0.00001871,0.00003572,0.00000309,0.
 00000713,0.00002244,-0.00003989,-0.00007721,-0.00002804,0.00006315,-0.
 00002253,0.00003012,-0.00004709,0.00014468,0.00004992,0.00003077,-0.00
 002625,-0.00004377,0.00000248,0.00005251,0.00000571,-0.00004106,0.0000
 2809,0.00085198,0.00116782,-0.00004743,0.00003391,-0.00005311,-0.00042
 074,0.00232117,-0.00359983,-0.00629168,-0.00013392,0.00018067,0.000207
 67,0.03182296,0.01537866,0.00584524,0.00013915,-0.00016077,0.00066676,
 0.00107201,0.00087211,0.00028959,-0.02473088,-0.00975195,-0.08188476,0
 .23159454,0.10270827,0.16299946,-0.00024811,0.00005437,0.00007548,-0.0
 0007851,0.00000411,-0.00014755,0.00002724,0.00001777,0.00002839,0.0000
 3801,0.00001141,-0.00000299,-0.00023836,0.00000274,0.00011303,-0.00001
 127,-0.00001623,-0.00000928,-0.00001192,-0.00001814,-0.00002245,0.0000
 2721,0.00000934,-0.00000250,0.00013807,-0.00009026,-0.00005493,0.00002
 978,-0.00000104,0.00001528,-0.00058327,-0.00017815,0.00031351,-0.00005
 806,0.00014600,0.00021566,0.00092677,-0.00097271,0.00119041,-0.0000827
 8,-0.00005065,0.00003577,0.01588262,-0.01032824,0.00961024,0.00026806,
 0.00018502,-0.00016046,-0.00274653,0.00125084,0.00446241,-0.12920888,0
 .04539683,-0.07583829,-0.02774268,0.01680018,-0.03721448,0.52409426,0.
 00013786,0.00005347,-0.00002594,-0.00002497,-0.00017594,0.00000477,-0.
 00001247,-0.00000760,-0.00000043,0.00004547,0.00002673,0.00002197,0.00
 000278,-0.00007155,-0.00006070,0.00000905,0.00002260,0.00000256,0.0000
 0787,-0.00001082,0.00003992,0.00000722,0.00000855,-0.00000699,-0.00017
 376,0.00000007,0.00002734,-0.00001783,-0.00001747,-0.00001317,0.000119
 38,0.00038351,0.00014550,0.00007343,-0.00012131,-0.00021241,0.00003225
 ,-0.00064056,0.00105987,0.00006410,-0.00001622,0.00006184,-0.00680305,
 0.00476580,0.00156840,-0.00022216,0.00049977,-0.00161884,0.00142556,0.
 00013593,-0.00173185,0.04755852,-0.12624967,0.07433309,-0.00524846,0.0
 0994379,-0.01218331,-0.39842225,0.52468124,-0.00030065,-0.00000375,0.0
 0007911,0.00012092,0.00010145,-0.00030729,-0.00001324,-0.00001385,0.00
 000118,-0.00002042,-0.00000029,-0.00003453,-0.00011302,0.00006061,0.00
 011869,-0.00000465,-0.00001829,-0.00000925,-0.00001041,0.00000217,-0.0
 0007719,-0.00000931,-0.00001137,0.00001171,0.00024850,-0.00004712,-0.0
 0005634,-0.00000730,0.00000096,0.00002334,0.00006805,-0.00036989,-0.00
 015340,0.00002977,0.00009605,0.00028781,-0.00083455,0.00092378,0.00040
 214,-0.00013660,-0.00009296,-0.00010513,-0.01084673,0.01510569,-0.0382
 7232,-0.00123391,0.00025258,0.00149211,0.00388185,-0.00108556,-0.00475
 956,-0.08185616,0.07632305,-0.20320625,-0.00836315,0.00084772,-0.00764
 415,0.63706362,-0.63727270,1.14640155,0.00000949,0.00008987,-0.0000079
 9,-0.00007005,-0.00014292,0.00001323,-0.00001664,-0.00000940,0.0000186
 0,0.00004348,0.00001410,0.00001273,-0.00001127,0.00000904,0.00000465,-
 0.00000497,0.00003172,-0.00001433,0.00000614,-0.00001901,0.00002802,0.
 00002014,0.00000695,-0.00000590,0.00007405,-0.00003579,0.00003821,-0.0
 0000693,-0.00002954,0.00001335,-0.00019230,0.00012696,-0.00014594,0.00
 006972,-0.00012503,-0.00006364,-0.00095247,0.00160297,0.00058940,-0.00
 094027,0.00020191,0.00091452,-0.00069642,0.02262912,0.00416510,-0.0017
 8381,0.00005232,0.00408783,0.00072706,-0.00090550,-0.00073788,-0.08174
 214,0.01758986,0.00173016,0.00121885,-0.04477389,-0.00816561,-0.001869
 96,0.02262959,0.00357585,0.13691656,-0.00018363,0.00001649,0.00005372,
 0.00007602,0.00017347,-0.00016863,-0.00006253,-0.00003209,0.00001324,-
 0.00003913,-0.00003157,-0.00002036,-0.00001624,0.00002259,0.00001830,0
 .00003171,-0.00001159,0.00000115,-0.00001108,0.00000891,-0.00006313,-0
 .00001033,-0.00001316,0.00000691,0.00011685,-0.00004947,0.00003086,-0.
 00001788,-0.00001169,-0.00000895,-0.00051594,-0.00101001,-0.00003461,0
 .00013362,-0.00010598,0.00011561,0.00034106,0.00237038,0.00026632,-0.0
 0021668,-0.00063959,0.00014402,0.00963242,-0.01029978,-0.01475553,-0.0
 0003754,0.00038664,0.00021608,-0.00075446,0.00078256,0.00144918,0.0135
 3739,-0.28995734,-0.03014374,-0.00689408,-0.02615137,-0.00694790,0.007
 97483,-0.02830736,0.00227109,-0.12892877,1.89356797,-0.00003564,0.0000
 0817,-0.00001301,0.00003514,0.00013245,-0.00007477,0.00001239,-0.00000
 196,0.00000608,-0.00002226,-0.00001737,-0.00000795,0.00000927,-0.00000
 255,-0.00000925,0.00001434,-0.00000116,-0.00000353,-0.00000326,0.00000
 227,-0.00002256,-0.00000966,-0.00000505,0.00000485,0.00003206,-0.00003
 013,0.00002793,-0.00001457,-0.00000246,0.00001207,-0.00002053,-0.00019
 459,0.00007428,-0.00006567,0.00009839,-0.00002843,0.00009754,0.0000439
 7,0.00078549,0.00104406,0.00000905,-0.00029251,0.00383969,-0.03674288,
 -0.00638320,0.00391407,-0.00023449,-0.00582194,-0.00072084,-0.00063924
 ,0.00066714,0.00110951,-0.03478001,-0.08454156,0.00051417,-0.00577542,
 -0.00080993,-0.00363967,0.03726926,0.00493117,-0.01947699,0.24908065,0
 .16186394,0.00049890,0.00011737,-0.00025230,-0.00000388,-0.00004282,-0
 .00000764,-0.00000786,-0.00001273,-0.00001478,0.00000428,0.00000368,0.
 00003670,0.00013806,-0.00017366,-0.00024859,0.00007405,0.00011686,-0.0
 0003201,0.00002266,0.00002444,0.00004378,-0.00006066,-0.00002990,0.000
 01651,-0.00049363,-0.00017889,0.00020305,-0.00012404,-0.00005629,0.000
 08122,0.00066706,-0.00006841,0.00052923,0.00002199,-0.00018672,-0.0003
 3111,-0.00076496,0.00004218,0.00067938,0.00008525,0.00003718,-0.000030
 63,-0.00490761,0.00259224,-0.00030045,0.00008959,-0.00026776,-0.000158
 05,0.00114840,-0.00056349,-0.00104329,0.01693061,0.00253899,-0.0056162
 4,0.00212258,-0.00101506,0.00256982,-0.37898669,0.34175651,-0.54078214
 ,-0.00021733,-0.00014090,-0.00110656,0.36359776,0.00004170,-0.00021445
 ,-0.00008927,-0.00005094,0.00019012,0.00000483,0.00002304,0.00002465,-
 0.00001951,-0.00002921,-0.00002352,0.00001676,-0.00009028,0.00000006,0
 .00004714,-0.00003577,-0.00004947,0.00003009,-0.00001513,0.00003953,-0
 .00000248,-0.00001933,0.00000076,0.00000999,-0.00017881,-0.00014787,-0
 .00001281,0.00008790,0.00009341,-0.00001432,-0.00004571,-0.00037947,-0
 .00009495,-0.00007833,0.00010520,0.00017826,0.00000921,0.00039463,0.00
 001888,-0.00000429,0.00003410,-0.00003977,0.00290415,-0.00174762,-0.00
 051385,-0.00017434,0.00025712,0.00049239,-0.00077020,0.00045524,0.0006
 0551,0.00127119,0.01601553,0.00392129,0.00107062,-0.00153194,0.0027325
 3,0.34215749,-0.38283178,0.54381340,-0.00136789,0.00234412,-0.00274394
 ,-0.34501229,0.36646493,0.00013092,-0.00013827,-0.00009909,-0.00013547
 ,-0.00001571,-0.00003767,0.00001956,0.00002194,-0.00000767,0.00006115,
 0.00001065,0.00003997,0.00005488,-0.00002731,-0.00005633,-0.00003822,-
 0.00003089,0.00002793,-0.00000864,0.00001215,0.00005251,0.00001816,0.0
 0001287,0.00000312,-0.00020311,0.00001271,0.00009670,0.00008139,0.0000
 4719,-0.00001162,0.00014464,0.00008971,0.00000948,-0.00001919,0.000027
 36,-0.00003355,-0.00021112,-0.00032889,-0.00027227,0.00004553,0.000074
 60,-0.00004820,-0.00063581,-0.00017473,0.00320581,0.00024678,-0.000026
 89,-0.00006037,0.00025286,-0.00003188,0.00005520,-0.00385295,0.0046618
 7,0.01154391,-0.00054226,0.00133854,-0.00106542,-0.53978003,0.54204415
 ,-0.89958166,-0.00198677,0.00102980,-0.00255825,0.54606476,-0.54851977
 ,0.88815591,0.00011582,-0.00012337,-0.00002858,0.00007998,0.00000539,0
 .00007685,0.00003277,0.00001032,-0.00004103,-0.00003612,0.00001249,-0.
 00000023,0.00002978,-0.00001784,0.00000730,-0.00000693,-0.00001789,0.0
 0001456,0.00000301,0.00001869,-0.00000570,-0.00003694,0.00000069,0.000
 00676,-0.00012404,0.00008794,-0.00008134,-0.00000999,0.00003944,-0.000
 00992,0.00031456,0.00039144,0.00010079,-0.00012285,0.00007559,-0.00006
 001,-0.00056563,-0.00086878,0.00051048,0.00015530,0.00065724,-0.000183
 96,-0.00041780,-0.00256760,0.00008338,0.00032702,0.00005629,-0.0005873
 1,-0.00011786,0.00009789,0.00012441,0.01879418,0.00097005,-0.00057872,
 -0.00015859,0.00497667,0.00095743,0.00059408,-0.00197125,-0.00063825,-
 0.04737270,0.10666139,0.01504966,0.00009526,0.00019984,0.00027725,0.02
 785979,0.00008267,-0.00008304,-0.00001137,-0.00004521,-0.00009925,0.00
 009492,0.00005367,0.00002403,-0.00001110,0.00003140,0.00001842,0.00001
 443,-0.00000103,-0.00001747,-0.00000098,-0.00002954,-0.00001169,0.0000
 0245,0.00000150,-0.00000809,0.00004104,0.00001291,0.00002391,-0.000007
 42,-0.00005625,0.00009342,-0.00004714,0.00003944,0.00003117,-0.0000035
 3,0.00040959,0.00063432,0.00001534,-0.00015193,0.00011530,-0.00009303,
 -0.00091589,-0.00097768,0.00013202,0.00056249,0.00051222,-0.00014366,-
 0.00275107,-0.00233813,0.00425955,0.00071874,0.00049094,-0.00133475,0.
 00009686,0.00001805,-0.00059662,0.00166919,0.00714075,-0.00243572,0.00
 106471,-0.00085318,0.00012969,-0.00068869,-0.00069134,-0.00087775,0.10
 796866,-1.54522679,-0.20566132,0.00015051,0.00005356,0.00011991,-0.108
 05516,1.54102645,0.00008830,-0.00004740,-0.00006903,-0.00012024,0.0000
 1011,-0.00007815,-0.00000956,0.00000323,-0.00001105,0.00003711,0.00000
 994,0.00002395,-0.00001528,0.00001315,0.00002335,-0.00001336,0.0000089
 4,0.00001207,-0.00000291,0.00000358,0.00002811,0.00000593,0.00000032,0
 .00001087,-0.00008123,0.00001437,-0.00001163,0.00000994,0.00000354,0.0
 0001641,-0.00006460,-0.00029110,0.00003903,0.00008848,-0.00003741,-0.0
 0001417,0.00023655,0.00037330,-0.00014189,-0.00026472,-0.00032847,-0.0
 0013233,0.00020265,0.00373399,-0.00015131,-0.00034513,-0.00012799,0.00
 086850,0.00012280,0.00018340,0.00030660,-0.00032720,-0.00267522,0.0188
 0270,-0.00012981,-0.00012079,0.00050076,0.00032238,-0.00466435,-0.0004
 6182,0.01497694,-0.20310638,-0.06831718,0.00012770,0.00055697,0.000451
 52,-0.01491054,0.20646083,0.04829476,-0.00000503,-0.00004505,0.0000004
 5,0.00012043,0.00012297,-0.00008717,-0.00000940,-0.00000983,-0.0000187
 7,-0.00005868,-0.00000914,-0.00001013,0.00002721,0.00000722,0.00000931
 ,0.00002014,-0.00001034,0.00000966,-0.00000283,0.00002684,-0.00004991,
 -0.00004322,-0.00002042,0.00001222,-0.00006066,-0.00001932,-0.00001816
 ,-0.00003694,0.00001292,-0.00000592,-0.00013349,-0.00029667,0.00007000
 ,0.00000903,-0.00001552,0.00006115,0.00032423,0.00076505,0.00080008,-0
 .00005313,-0.00005657,-0.00006347,0.00167882,-0.00101350,-0.00382096,-
 0.00010054,0.00016575,0.00025361,-0.00013870,-0.00003236,0.00050276,0.
 00826892,-0.00415230,-0.00090830,-1.29801419,-0.56085593,-0.20141670,-
 0.00015909,-0.00097339,0.00018194,-0.00320823,-0.00067609,-0.00055623,
 0.00007023,0.00010736,0.00001568,0.00056791,-0.00016756,0.00006582,1.2
 9093719,-0.00003053,-0.00007158,-0.00000197,0.00005985,0.00009489,-0.0
 0010047,-0.00000080,0.00000067,-0.00000920,-0.00002991,-0.00001065,-0.
 00000223,0.00000934,0.00000854,0.00001137,0.00000694,-0.00001315,0.000
 00504,-0.00000638,0.00001777,-0.00003075,-0.00002041,-0.00000464,0.000
 00727,-0.00002989,0.00000077,-0.00001287,0.00000069,0.00002391,-0.0000
 0031,-0.00008490,-0.00027675,0.00003462,-0.00002324,-0.00000153,0.0000
 6803,-0.00009767,0.00075899,0.00083020,0.00004692,0.00000274,-0.000025
 54,-0.00039281,-0.00138511,-0.00257724,-0.00048503,0.00027499,0.000317
 23,0.00011770,-0.00007029,0.00008863,-0.00437859,0.01653057,0.00002714
 ,-0.56167671,-0.29018222,-0.09023157,-0.00324459,-0.00137983,-0.000005
 02,0.00338468,0.00217466,0.00018837,0.00036895,0.00045317,-0.00020911,
 -0.00063949,0.00012411,0.00002348,0.56714587,0.27292998,-0.00004150,-0
 .00003964,-0.00001147,0.00002687,0.00006731,-0.00023320,-0.00000118,-0
 .00000438,-0.00000585,0.00000413,0.00000427,0.00000434,0.00000250,0.00
 000699,0.00001172,0.00000591,-0.00000691,0.00000485,-0.00000848,0.0000
 1157,-0.00002626,-0.00001223,-0.00000728,0.00001243,-0.00001652,-0.000
 00999,0.00000311,-0.00000676,0.00000743,0.00001087,-0.00006695,-0.0002
 4751,0.00009114,-0.00000949,0.00000196,0.00007937,-0.00031235,0.000782
 73,0.00144589,0.00007277,-0.00001662,-0.00007564,-0.00268468,-0.002296
 66,-0.00287580,-0.00023208,0.00028443,0.00006382,-0.00012856,-0.000317
 82,0.00051840,-0.00142684,-0.00012581,0.01916434,-0.20348888,-0.091040
 14,-0.07311646,0.00342644,0.00121199,0.00092009,0.00043648,0.00055231,
 0.00051113,-0.00042835,-0.00037735,0.00019006,-0.00008327,-0.00004579,
 0.00000994,0.20497304,0.09160490,0.05330318\\0.00000470,-0.00000671,0.
 00001186,-0.00000248,0.00000533,-0.00000891,0.00000104,-0.00000518,0.0
 0000378,0.00000042,-0.00000283,-0.00000025,-0.00000295,0.00000422,0.00
 000522,0.00000041,-0.00000485,0.00000296,0.00000538,0.00000873,-0.0000
 0705,-0.00000447,-0.00000418,0.00000275,0.00000228,-0.00000286,-0.0000
 0502,-0.00000130,0.00000606,-0.00000384,0.00000158,0.00000743,-0.00000
 406,-0.00000021,0.00000127,0.00000276,-0.00000146,-0.00000746,-0.00000
 431,0.00000019,-0.00000134,0.00000258,0.00000247,-0.00000524,-0.000009
 01,-0.00000109,0.00000521,0.00000367,-0.00000042,0.00000291,-0.0000001
 5,-0.00000484,0.00000666,0.00001210,-0.00000534,-0.00000886,-0.0000070
 3,0.00000294,-0.00000420,0.00000519,-0.00000022,0.00000491,0.00000280,
 -0.00000225,0.00000284,-0.00000503,0.00000118,-0.00000608,-0.00000377,
 0.00000444,0.00000421,0.00000275\\\@
 Job cpu time:       0 days  6 hours 38 minutes 47.8 seconds.
 Elapsed time:       0 days  2 hours  6 minutes  8.8 seconds.
 File lengths (MBytes):  RWF= 141268 Int=      0 D2E=      0 Chk=     51 Scr=      1
 Normal termination of Gaussian 16 at Mon Jun 20 16:30:27 2022.
