 Entering Gaussian System, Link 0=/home/artemiy/opt/gaussian/g16/g16
 Input=1,1,1-Tricyanobutyne-3_G3MP2.gjf
 Output=1,1,1-Tricyanobutyne-3_G3MP2.log
 Initial command:
 /home/artemiy/opt/gaussian/g16/l1.exe "/home/artemiy/opt/gaussian/scr/Gau-2708.inp" -scrdir="/home/artemiy/opt/gaussian/scr/"
 Entering Link 1 = /home/artemiy/opt/gaussian/g16/l1.exe PID=      2710.
  
 Copyright (c) 1988,1990,1992,1993,1995,1998,2003,2009,2016,
            Gaussian, Inc.  All Rights Reserved.
  
 This is part of the Gaussian(R) 16 program.  It is based on
 the Gaussian(R) 09 system (copyright 2009, Gaussian, Inc.),
 the Gaussian(R) 03 system (copyright 2003, Gaussian, Inc.),
 the Gaussian(R) 98 system (copyright 1998, Gaussian, Inc.),
 the Gaussian(R) 94 system (copyright 1995, Gaussian, Inc.),
 the Gaussian 92(TM) system (copyright 1992, Gaussian, Inc.),
 the Gaussian 90(TM) system (copyright 1990, Gaussian, Inc.),
 the Gaussian 88(TM) system (copyright 1988, Gaussian, Inc.),
 the Gaussian 86(TM) system (copyright 1986, Carnegie Mellon
 University), and the Gaussian 82(TM) system (copyright 1983,
 Carnegie Mellon University). Gaussian is a federally registered
 trademark of Gaussian, Inc.
  
 This software contains proprietary and confidential information,
 including trade secrets, belonging to Gaussian, Inc.
  
 This software is provided under written license and may be
 used, copied, transmitted, or stored only in accord with that
 written license.
  
 The following legend is applicable only to US Government
 contracts under FAR:
  
                    RESTRICTED RIGHTS LEGEND
  
 Use, reproduction and disclosure by the US Government is
 subject to restrictions as set forth in subparagraphs (a)
 and (c) of the Commercial Computer Software - Restricted
 Rights clause in FAR 52.227-19.
  
 Gaussian, Inc.
 340 Quinnipiac St., Bldg. 40, Wallingford CT 06492
  
  
 ---------------------------------------------------------------
 Warning -- This program may not be used in any manner that
 competes with the business of Gaussian, Inc. or will provide
 assistance to any competitor of Gaussian, Inc.  The licensee
 of this program is prohibited from giving any competitor of
 Gaussian, Inc. access to this program.  By using this program,
 the user acknowledges that Gaussian, Inc. is engaged in the
 business of creating and licensing software in the field of
 computational chemistry and represents and warrants to the
 licensee that it is not a competitor of Gaussian, Inc. and that
 it will not use this program in any manner prohibited above.
 ---------------------------------------------------------------
  

 Cite this work as:
 Gaussian 16, Revision A.03,
 M. J. Frisch, G. W. Trucks, H. B. Schlegel, G. E. Scuseria, 
 M. A. Robb, J. R. Cheeseman, G. Scalmani, V. Barone, 
 G. A. Petersson, H. Nakatsuji, X. Li, M. Caricato, A. V. Marenich, 
 J. Bloino, B. G. Janesko, R. Gomperts, B. Mennucci, H. P. Hratchian, 
 J. V. Ortiz, A. F. Izmaylov, J. L. Sonnenberg, D. Williams-Young, 
 F. Ding, F. Lipparini, F. Egidi, J. Goings, B. Peng, A. Petrone, 
 T. Henderson, D. Ranasinghe, V. G. Zakrzewski, J. Gao, N. Rega, 
 G. Zheng, W. Liang, M. Hada, M. Ehara, K. Toyota, R. Fukuda, 
 J. Hasegawa, M. Ishida, T. Nakajima, Y. Honda, O. Kitao, H. Nakai, 
 T. Vreven, K. Throssell, J. A. Montgomery, Jr., J. E. Peralta, 
 F. Ogliaro, M. J. Bearpark, J. J. Heyd, E. N. Brothers, K. N. Kudin, 
 V. N. Staroverov, T. A. Keith, R. Kobayashi, J. Normand, 
 K. Raghavachari, A. P. Rendell, J. C. Burant, S. S. Iyengar, 
 J. Tomasi, M. Cossi, J. M. Millam, M. Klene, C. Adamo, R. Cammi, 
 J. W. Ochterski, R. L. Martin, K. Morokuma, O. Farkas, 
 J. B. Foresman, and D. J. Fox, Gaussian, Inc., Wallingford CT, 2016.
 
 ******************************************
 Gaussian 16:  ES64L-G16RevA.03 25-Dec-2016
                17-Jun-2022 
 ******************************************
 %mem=7GB
 %nprocshared=4
 Will use up to    4 processors via shared memory.
 ----------------
 # g3mp2 geom=gic
 ----------------
 1/18=20,19=15,38=1,145=2/1,3;
 2/9=110,12=2,17=6,18=5,40=1/2;
 3/5=33,7=1,11=9,25=1,30=1,71=1/1,2,3;
 4//1;
 5/5=2,38=5/2;
 6/7=2,8=2,9=2,10=2,28=1/1;
 7//1,2,3,16;
 1/18=20,19=15,145=2/3(2);
 2/9=110/2;
 99//99;
 2/9=110/2;
 3/5=33,7=1,11=9,25=1,30=1,71=1/1,2,3;
 4/5=5,16=3,69=1/1;
 5/5=2,38=5/2;
 7//1,2,3,16;
 1/18=20,19=15,145=2/3(-5);
 2/9=110/2;
 6/7=2,8=2,9=2,10=2,19=2,28=1/1;
 99/9=1/99;
 -------------------
 CAS 1345980-45-1
 -------------------
 Symbolic Z-matrix:
 Charge =  0 Multiplicity = 1
 C                     0.40957  -0.00001   0.08411 
 C                    -0.55465  -0.00007   1.30827 
 H                    -0.3583   -0.89052   1.9139 
 H                    -0.35839   0.89034   1.91401 
 C                    -1.9309   -0.00025   0.85692 
 C                     1.79321  -0.00021   0.53986 
 C                     0.18487  -1.18622  -0.73256 
 C                     0.1851    1.18641  -0.73231 
 C                    -3.04539   0.00018   0.42342 
 H                    -4.03525   0.00034   0.07701 
 N                     0.00681   2.12538  -1.35352 
 N                     2.86541  -0.00023   0.92779 
 N                     0.00642  -2.12501  -1.35394 
 
 Initializing the GIC definitions file.

 GradGradGradGradGradGradGradGradGradGradGradGradGradGradGradGradGradGrad
 Berny optimization.
 Initialization pass.
                           ----------------------------
                           !    Initial Parameters    !
                           ! (Angstroms and Degrees)  !
 --------------------------                            --------------------------
 ! Name  Definition              Value          Derivative Info.                !
 --------------------------------------------------------------------------------
 ! R1    R(1,2)                  1.5583         estimate D2E/DX2                !
 ! R2    R(1,6)                  1.4568         estimate D2E/DX2                !
 ! R3    R(1,7)                  1.4576         estimate D2E/DX2                !
 ! R4    R(1,8)                  1.4576         estimate D2E/DX2                !
 ! R5    R(2,3)                  1.0946         estimate D2E/DX2                !
 ! R6    R(2,4)                  1.0947         estimate D2E/DX2                !
 ! R7    R(2,5)                  1.4484         estimate D2E/DX2                !
 ! R8    R(5,9)                  1.1958         estimate D2E/DX2                !
 ! R9    R(6,12)                 1.1402         estimate D2E/DX2                !
 ! R10   R(7,13)                 1.1399         estimate D2E/DX2                !
 ! R11   R(8,11)                 1.1399         estimate D2E/DX2                !
 ! R12   R(9,10)                 1.0487         estimate D2E/DX2                !
 ! A1    A(2,1,6)              109.9948         estimate D2E/DX2                !
 ! A2    A(2,1,7)              110.1655         estimate D2E/DX2                !
 ! A3    A(2,1,8)              110.1671         estimate D2E/DX2                !
 ! A4    A(6,1,7)              108.7595         estimate D2E/DX2                !
 ! A5    A(6,1,8)              108.7607         estimate D2E/DX2                !
 ! A6    A(7,1,8)              108.957          estimate D2E/DX2                !
 ! A7    A(1,2,3)              108.8858         estimate D2E/DX2                !
 ! A8    A(1,2,4)              108.8893         estimate D2E/DX2                !
 ! A9    A(1,2,5)              110.0688         estimate D2E/DX2                !
 ! A10   A(3,2,4)              108.8662         estimate D2E/DX2                !
 ! A11   A(3,2,5)              110.0443         estimate D2E/DX2                !
 ! A12   A(4,2,5)              110.0541         estimate D2E/DX2                !
 ! A13   L(2,5,9,13,-1)        177.5713         estimate D2E/DX2                !
 ! A14   L(2,5,9,13,-2)        182.0136         estimate D2E/DX2                !
 ! A15   L(1,6,12,3,-1)        178.4865         estimate D2E/DX2                !
 ! A16   L(1,6,12,3,-2)        180.8405         estimate D2E/DX2                !
 ! A17   L(1,7,13,10,-1)       179.8592         estimate D2E/DX2                !
 ! A18   L(1,7,13,10,-2)       181.0483         estimate D2E/DX2                !
 ! A19   L(1,8,11,10,-1)       179.8583         estimate D2E/DX2                !
 ! A20   L(1,8,11,10,-2)       178.9524         estimate D2E/DX2                !
 ! A21   L(5,9,10,11,-1)       181.5574         estimate D2E/DX2                !
 ! A22   L(5,9,10,11,-2)       181.4325         estimate D2E/DX2                !
 ! D1    D(6,1,2,3)            -59.2773         estimate D2E/DX2                !
 ! D2    D(6,1,2,4)             59.295          estimate D2E/DX2                !
 ! D3    D(6,1,2,5)           -179.9841         estimate D2E/DX2                !
 ! D4    D(7,1,2,3)             60.6038         estimate D2E/DX2                !
 ! D5    D(7,1,2,4)            179.176          estimate D2E/DX2                !
 ! D6    D(7,1,2,5)            -60.103          estimate D2E/DX2                !
 ! D7    D(8,1,2,3)           -179.1607         estimate D2E/DX2                !
 ! D8    D(8,1,2,4)            -60.5885         estimate D2E/DX2                !
 ! D9    D(8,1,2,5)             60.1325         estimate D2E/DX2                !
 --------------------------------------------------------------------------------
 Trust Radius=3.00D-01 FncErr=1.00D-07 GrdErr=1.00D-07 EigMax=2.50D+02 EigMin=1.00D-04
 Number of steps in this run=     53 maximum allowed number of steps=    100.
 GradGradGradGradGradGradGradGradGradGradGradGradGradGradGradGradGradGrad

                          Input orientation:                          
 ---------------------------------------------------------------------
 Center     Atomic      Atomic             Coordinates (Angstroms)
 Number     Number       Type             X           Y           Z
 ---------------------------------------------------------------------
      1          6           0        0.409569   -0.000011    0.084106
      2          6           0       -0.554648   -0.000070    1.308265
      3          1           0       -0.358303   -0.890522    1.913905
      4          1           0       -0.358386    0.890339    1.914008
      5          6           0       -1.930896   -0.000252    0.856918
      6          6           0        1.793210   -0.000209    0.539858
      7          6           0        0.184873   -1.186218   -0.732557
      8          6           0        0.185101    1.186412   -0.732313
      9          6           0       -3.045390    0.000176    0.423417
     10          1           0       -4.035246    0.000342    0.077012
     11          7           0        0.006806    2.125379   -1.353523
     12          7           0        2.865411   -0.000227    0.927793
     13          7           0        0.006419   -2.125015   -1.353942
 ---------------------------------------------------------------------
                    Distance matrix (angstroms):
                    1          2          3          4          5
     1  C    0.000000
     2  C    1.558294   0.000000
     3  H    2.175040   1.094648   0.000000
     4  H    2.175090   1.094655   1.780860   0.000000
     5  C    2.464754   1.448369   2.093525   2.093651   0.000000
     6  C    1.456768   2.470402   2.703640   2.703836   3.737579
     7  C    1.457571   2.473620   2.717763   3.407569   2.899901
     8  C    1.457575   2.473646   3.407551   2.717729   2.900218
     9  C    3.471581   2.643247   3.199270   3.199100   1.195835
    10  H    4.444820   3.691958   4.205677   4.205467   2.244225
    11  N    2.597360   3.452228   4.461507   3.512186   3.627540
    12  N    2.596722   3.441156   3.486742   3.486917   4.796830
    13  N    2.597336   3.452179   3.512238   4.461495   3.627080
                    6          7          8          9         10
     6  C    0.000000
     7  C    2.369052   0.000000
     8  C    2.369072   2.372629   0.000000
     9  C    4.840001   3.630208   3.630281   0.000000
    10  H    5.846805   4.457885   4.457925   1.048719   0.000000
    11  N    3.360693   3.374015   1.139891   4.121881   4.785436
    12  N    1.140222   3.368771   3.368698   5.932281   6.952905
    13  N    3.360640   1.139870   3.374003   4.121769   4.785377
                   11         12         13
    11  N    0.000000
    12  N    4.230157   0.000000
    13  N    4.250394   4.230233   0.000000
 Stoichiometry    C7H3N3
 Framework group  C1[X(C7H3N3)]
 Deg. of freedom    33
 Full point group                 C1      NOp   1
 Largest Abelian subgroup         C1      NOp   1
 Largest concise Abelian subgroup C1      NOp   1
                         Standard orientation:                         
 ---------------------------------------------------------------------
 Center     Atomic      Atomic             Coordinates (Angstroms)
 Number     Number       Type             X           Y           Z
 ---------------------------------------------------------------------
      1          6           0       -0.444800   -0.000010   -0.057837
      2          6           0        0.527715   -0.000083   -1.275414
      3          1           0        0.335485   -0.890537   -1.882368
      4          1           0        0.335582    0.890323   -1.882482
      5          6           0        1.900863   -0.000272   -0.814723
      6          6           0       -1.825312   -0.000200   -0.522984
      7          6           0       -0.225670   -1.186213    0.760342
      8          6           0       -0.225878    1.186417    0.760081
      9          6           0        3.012385    0.000150   -0.373656
     10          1           0        3.999863    0.000311   -0.020530
     11          7           0       -0.051803    2.125387    1.382483
     12          7           0       -2.894851   -0.000213   -0.918198
     13          7           0       -0.051451   -2.125007    1.382932
 ---------------------------------------------------------------------
 Rotational constants (GHZ):           1.8011322           1.1192918           1.0216833
 Standard basis: GTBas1 (6D, 7F)
 There are   156 symmetry adapted cartesian basis functions of A   symmetry.
 There are   156 symmetry adapted basis functions of A   symmetry.
   156 basis functions,   292 primitive gaussians,   156 cartesian basis functions
    33 alpha electrons       33 beta electrons
       nuclear repulsion energy       410.5088116283 Hartrees.
 NAtoms=   13 NActive=   13 NUniq=   13 SFac= 1.00D+00 NAtFMM=   60 NAOKFM=F Big=F
 Integral buffers will be    131072 words long.
 Raffenetti 1 integral format.
 Two-electron integral symmetry is turned on.
 One-electron integrals computed using PRISM.
 NBasis=   156 RedAO= T EigKep=  3.90D-04  NBF=   156
 NBsUse=   156 1.00D-06 EigRej= -1.00D+00 NBFU=   156
 ExpMin= 1.61D-01 ExpMax= 4.17D+03 ExpMxC= 6.27D+02 IAcc=3 IRadAn=         5 AccDes= 0.00D+00
 Harris functional with IExCor=  205 and IRadAn=       5 diagonalized for initial guess.
 HarFok:  IExCor=  205 AccDes= 0.00D+00 IRadAn=         5 IDoV= 1 UseB2=F ITyADJ=14
 ICtDFT=  3500011 ScaDFX=  1.000000  1.000000  1.000000  1.000000
 FoFCou: FMM=F IPFlag=           0 FMFlag=      100000 FMFlg1=           0
         NFxFlg=           0 DoJE=T BraDBF=F KetDBF=T FulRan=T
         wScrn=  0.000000 ICntrl=       500 IOpCl=  0 I1Cent=   200000004 NGrid=           0
         NMat0=    1 NMatS0=      1 NMatT0=    0 NMatD0=    1 NMtDS0=    0 NMtDT0=    0
 Petite list used in FoFCou.
 Keep R1 ints in memory in canonical form, NReq=76924239.
 Requested convergence on RMS density matrix=1.00D-08 within 128 cycles.
 Requested convergence on MAX density matrix=1.00D-06.
 Requested convergence on             energy=1.00D-06.
 No special actions if energy rises.
 SCF Done:  E(RHF) =  -430.045789055     A.U. after   14 cycles
            NFock= 14  Conv=0.57D-08     -V/T= 2.0015

 **********************************************************************

            Population analysis using the SCF density.

 **********************************************************************

 Orbital symmetries:
       Occupied  (A) (A) (A) (A) (A) (A) (A) (A) (A) (A) (A) (A)
                 (A) (A) (A) (A) (A) (A) (A) (A) (A) (A) (A) (A)
                 (A) (A) (A) (A) (A) (A) (A) (A) (A)
       Virtual   (A) (A) (A) (A) (A) (A) (A) (A) (A) (A) (A) (A)
                 (A) (A) (A) (A) (A) (A) (A) (A) (A) (A) (A) (A)
                 (A) (A) (A) (A) (A) (A) (A) (A) (A) (A) (A) (A)
                 (A) (A) (A) (A) (A) (A) (A) (A) (A) (A) (A) (A)
                 (A) (A) (A) (A) (A) (A) (A) (A) (A) (A) (A) (A)
                 (A) (A) (A) (A) (A) (A) (A) (A) (A) (A) (A) (A)
                 (A) (A) (A) (A) (A) (A) (A) (A) (A) (A) (A) (A)
                 (A) (A) (A) (A) (A) (A) (A) (A) (A) (A) (A) (A)
                 (A) (A) (A) (A) (A) (A) (A) (A) (A) (A) (A) (A)
                 (A) (A) (A) (A) (A) (A) (A) (A) (A) (A) (A) (A)
                 (A) (A) (A)
 The electronic state is 1-A.
 Alpha  occ. eigenvalues --  -15.63302 -15.62804 -15.62803 -11.41705 -11.33585
 Alpha  occ. eigenvalues --  -11.32986 -11.32568 -11.32567 -11.27202 -11.26756
 Alpha  occ. eigenvalues --   -1.30449  -1.27205  -1.26897  -1.19690  -1.08693
 Alpha  occ. eigenvalues --   -0.99753  -0.84761  -0.84453  -0.76180  -0.70457
 Alpha  occ. eigenvalues --   -0.66959  -0.65532  -0.60778  -0.60092  -0.59861
 Alpha  occ. eigenvalues --   -0.53811  -0.53800  -0.51385  -0.50986  -0.50690
 Alpha  occ. eigenvalues --   -0.50397  -0.42847  -0.42506
 Alpha virt. eigenvalues --    0.11310   0.12380   0.13160   0.15406   0.17981
 Alpha virt. eigenvalues --    0.19761   0.20894   0.23910   0.25223   0.27338
 Alpha virt. eigenvalues --    0.27694   0.28364   0.33218   0.36650   0.38991
 Alpha virt. eigenvalues --    0.42295   0.52545   0.53671   0.55948   0.60047
 Alpha virt. eigenvalues --    0.61570   0.69168   0.69313   0.72157   0.72918
 Alpha virt. eigenvalues --    0.75745   0.78527   0.79259   0.82673   0.83060
 Alpha virt. eigenvalues --    0.83414   0.86984   0.88249   0.88613   0.90062
 Alpha virt. eigenvalues --    0.92782   0.93102   0.94063   1.00756   1.01132
 Alpha virt. eigenvalues --    1.03572   1.04886   1.06376   1.06409   1.07131
 Alpha virt. eigenvalues --    1.07772   1.12079   1.14026   1.16087   1.17080
 Alpha virt. eigenvalues --    1.19885   1.21894   1.23642   1.34429   1.42489
 Alpha virt. eigenvalues --    1.42702   1.48647   1.49431   1.51774   1.64144
 Alpha virt. eigenvalues --    1.69555   1.73748   1.74075   1.74575   1.74910
 Alpha virt. eigenvalues --    1.75608   1.75764   1.78907   1.80462   1.81460
 Alpha virt. eigenvalues --    1.82698   1.89540   1.90155   1.91878   1.94175
 Alpha virt. eigenvalues --    2.03742   2.04988   2.13025   2.18127   2.19554
 Alpha virt. eigenvalues --    2.19975   2.20871   2.21841   2.24509   2.24603
 Alpha virt. eigenvalues --    2.26228   2.28560   2.29282   2.32155   2.34213
 Alpha virt. eigenvalues --    2.35806   2.43533   2.50202   2.51336   2.53363
 Alpha virt. eigenvalues --    2.58702   2.69558   2.90953   2.92193   2.95087
 Alpha virt. eigenvalues --    2.98643   3.01623   3.05065   3.06060   3.14508
 Alpha virt. eigenvalues --    3.18150   3.22056   3.32224   3.33856   3.51243
 Alpha virt. eigenvalues --    3.68871   3.71795   3.76515   4.47115   4.47490
 Alpha virt. eigenvalues --    4.50902   4.55267   4.65809   4.70381   4.88582
 Alpha virt. eigenvalues --    4.88943   5.11449   5.50211
          Condensed to atoms (all electrons):
               1          2          3          4          5          6
     1  C    5.103002   0.362298  -0.036149  -0.036139  -0.045394   0.318324
     2  C    0.362298   5.176811   0.398325   0.398241   0.273813  -0.057756
     3  H   -0.036149   0.398325   0.436535  -0.016854  -0.037945  -0.003104
     4  H   -0.036139   0.398241  -0.016854   0.436502  -0.037869  -0.003104
     5  C   -0.045394   0.273813  -0.037945  -0.037869   4.651191   0.006497
     6  C    0.318324  -0.057756  -0.003104  -0.003104   0.006497   4.605113
     7  C    0.306326  -0.057256  -0.003820   0.005404  -0.008532  -0.076450
     8  C    0.306323  -0.057240   0.005406  -0.003819  -0.008536  -0.076453
     9  C   -0.001711  -0.100834  -0.002330  -0.002311   1.077454  -0.000058
    10  H    0.000008   0.002237  -0.000029  -0.000029   0.025802   0.000002
    11  N   -0.048312  -0.002417  -0.000007   0.000165  -0.002054  -0.003909
    12  N   -0.052678  -0.001641   0.000141   0.000141  -0.000071   0.935543
    13  N   -0.048306  -0.002416   0.000165  -0.000007  -0.002057  -0.003909
               7          8          9         10         11         12
     1  C    0.306326   0.306323  -0.001711   0.000008  -0.048312  -0.052678
     2  C   -0.057256  -0.057240  -0.100834   0.002237  -0.002417  -0.001641
     3  H   -0.003820   0.005406  -0.002330  -0.000029  -0.000007   0.000141
     4  H    0.005404  -0.003819  -0.002311  -0.000029   0.000165   0.000141
     5  C   -0.008532  -0.008536   1.077454   0.025802  -0.002054  -0.000071
     6  C   -0.076450  -0.076453  -0.000058   0.000002  -0.003909   0.935543
     7  C    4.616399  -0.079342   0.001373   0.000006  -0.003092  -0.003314
     8  C   -0.079342   4.616396   0.001370   0.000006   0.928404  -0.003318
     9  C    0.001373   0.001370   5.105586   0.327884  -0.000257  -0.000001
    10  H    0.000006   0.000006   0.327884   0.335419   0.000004  -0.000000
    11  N   -0.003092   0.928404  -0.000257   0.000004   6.523259  -0.000146
    12  N   -0.003314  -0.003318  -0.000001  -0.000000  -0.000146   6.519536
    13  N    0.928426  -0.003092  -0.000258   0.000004  -0.000108  -0.000146
              13
     1  C   -0.048306
     2  C   -0.002416
     3  H    0.000165
     4  H   -0.000007
     5  C   -0.002057
     6  C   -0.003909
     7  C    0.928426
     8  C   -0.003092
     9  C   -0.000258
    10  H    0.000004
    11  N   -0.000108
    12  N   -0.000146
    13  N    6.523221
 Mulliken charges:
               1
     1  C   -0.127593
     2  C   -0.332164
     3  H    0.259666
     4  H    0.259677
     5  C    0.107701
     6  C    0.359264
     7  C    0.373872
     8  C    0.373894
     9  C   -0.405908
    10  H    0.308685
    11  N   -0.391531
    12  N   -0.394047
    13  N   -0.391518
 Sum of Mulliken charges =  -0.00000
 Mulliken charges with hydrogens summed into heavy atoms:
               1
     1  C   -0.127593
     2  C    0.187179
     5  C    0.107701
     6  C    0.359264
     7  C    0.373872
     8  C    0.373894
     9  C   -0.097223
    11  N   -0.391531
    12  N   -0.394047
    13  N   -0.391518
 Electronic spatial extent (au):  <R**2>=           1276.8183
 Charge=             -0.0000 electrons
 Dipole moment (field-independent basis, Debye):
    X=              2.8561    Y=              0.0001    Z=             -2.9667  Tot=              4.1181
 Quadrupole moment (field-independent basis, Debye-Ang):
   XX=            -58.0912   YY=            -67.3875   ZZ=            -58.9641
   XY=              0.0018   XZ=             -2.3970   YZ=              0.0005
 Traceless Quadrupole moment (field-independent basis, Debye-Ang):
   XX=              3.3897   YY=             -5.9066   ZZ=              2.5169
   XY=              0.0018   XZ=             -2.3970   YZ=              0.0005
 Octapole moment (field-independent basis, Debye-Ang**2):
  XXX=             74.8872  YYY=             -0.0083  ZZZ=            -11.5831  XYY=             -3.9098
  XXY=              0.0094  XXZ=             19.4213  XZZ=              0.8098  YZZ=              0.0039
  YYZ=            -22.2588  XYZ=              0.0027
 Hexadecapole moment (field-independent basis, Debye-Ang**3):
 XXXX=           -835.9575 YYYY=           -534.2269 ZZZZ=           -367.0338 XXXY=              0.0185
 XXXZ=            -15.0780 YYYX=              0.0078 YYYZ=             -0.0046 ZZZX=              0.0293
 ZZZY=              0.0069 XXYY=           -237.3544 XXZZ=           -237.3208 YYZZ=           -165.2579
 XXYZ=             -0.0034 YYXZ=              1.7632 ZZXY=              0.0021
 N-N= 4.105088116283D+02 E-N=-1.823420088207D+03  KE= 4.294000463085D+02
 Calling FoFJK, ICntrl=      2127 FMM=F ISym2X=0 I1Cent= 0 IOpClX= 0 NMat=1 NMatS=1 NMatT=0.
 ***** Axes restored to original set *****
 -------------------------------------------------------------------
 Center     Atomic                   Forces (Hartrees/Bohr)
 Number     Number              X              Y              Z
 -------------------------------------------------------------------
      1        6          -0.006066478   -0.000003252    0.008646057
      2        6           0.004488474   -0.000031993    0.013624257
      3        1           0.001574465    0.007556238   -0.004599592
      4        1           0.001557308   -0.007557244   -0.004611347
      5        6          -0.037754796    0.000061249   -0.013275761
      6        6           0.039656817    0.000010640    0.016119997
      7        6          -0.006617489   -0.035212713   -0.022483569
      8        6          -0.006620850    0.035261457   -0.022503427
      9        6           0.030968776   -0.000031004    0.015335855
     10        1          -0.007261014    0.000001777   -0.003663598
     11        7           0.003898096   -0.018739545    0.012520456
     12        7          -0.021716193   -0.000005025   -0.007601755
     13        7           0.003892885    0.018689415    0.012492427
 -------------------------------------------------------------------
 Cartesian Forces:  Max     0.039656817 RMS     0.016274341

 GradGradGradGradGradGradGradGradGradGradGradGradGradGradGradGradGradGrad
 Berny optimization.
 FormGI is forming the generalized inverse of G from B-inverse, IUseBI=4.
 Internal  Forces:  Max     0.026325446 RMS     0.009732321
 Search for a local minimum.
 Step number   1 out of a maximum of   53
 All quantities printed in internal units (Hartrees-Bohrs-Radians)
 Mixed Optimization -- RFO/linear search
 Second derivative matrix not updated -- first step.
 ITU=  0
     Eigenvalues ---    0.00230   0.00781   0.00781   0.04789   0.04789
     Eigenvalues ---    0.05128   0.05128   0.05133   0.05133   0.05133
     Eigenvalues ---    0.05133   0.05656   0.06091   0.08637   0.08683
     Eigenvalues ---    0.16000   0.16000   0.22478   0.25000   0.25000
     Eigenvalues ---    0.25000   0.26958   0.34280   0.34281   0.37270
     Eigenvalues ---    0.37270   0.37372   0.38459   0.40055   1.06944
     Eigenvalues ---    1.41662   1.41911   1.41927
 RFO step:  Lambda=-7.67161509D-03 EMin= 2.30000000D-03
 Linear search not attempted -- first point.
 Iteration  1 RMS(Cart)=  0.07606343 RMS(Int)=  0.00161655
 Iteration  2 RMS(Cart)=  0.00250177 RMS(Int)=  0.00026225
 Iteration  3 RMS(Cart)=  0.00000123 RMS(Int)=  0.00026224
 Iteration  4 RMS(Cart)=  0.00000000 RMS(Int)=  0.00026224
 Variable       Old X    -DE/DX   Delta X   Delta X   Delta X     New X
                                 (Linear)    (Quad)   (Total)
    R1        2.94475   0.00619   0.00000   0.02231   0.02231   2.96706
    R2        2.75289   0.01970   0.00000   0.05167   0.05167   2.80456
    R3        2.75441   0.01946   0.00000   0.05117   0.05117   2.80558
    R4        2.75442   0.01946   0.00000   0.05115   0.05115   2.80557
    R5        2.06858  -0.00841   0.00000  -0.02399  -0.02399   2.04459
    R6        2.06860  -0.00842   0.00000  -0.02402  -0.02402   2.04457
    R7        2.73702   0.01385   0.00000   0.03531   0.03531   2.77233
    R8        2.25980  -0.02633   0.00000  -0.02444  -0.02444   2.23536
    R9        2.15471  -0.02301   0.00000  -0.01615  -0.01615   2.13855
   R10        2.15404  -0.02281   0.00000  -0.01599  -0.01599   2.13806
   R11        2.15408  -0.02287   0.00000  -0.01603  -0.01603   2.13805
   R12        1.98179   0.00806   0.00000   0.01975   0.01975   2.00154
    A1        1.91977  -0.00558   0.00000  -0.02674  -0.02681   1.89296
    A2        1.92275   0.00038   0.00000   0.00406   0.00397   1.92673
    A3        1.92278   0.00037   0.00000   0.00400   0.00392   1.92669
    A4        1.89821   0.00172   0.00000   0.00172   0.00165   1.89986
    A5        1.89823   0.00173   0.00000   0.00170   0.00163   1.89986
    A6        1.90166   0.00147   0.00000   0.01559   0.01550   1.91716
    A7        1.90042  -0.00429   0.00000  -0.02735  -0.02782   1.87260
    A8        1.90048  -0.00429   0.00000  -0.02743  -0.02789   1.87259
    A9        1.92106   0.00986   0.00000   0.04949   0.04961   1.97068
   A10        1.90007   0.00066   0.00000  -0.01819  -0.01943   1.88065
   A11        1.92064  -0.00104   0.00000   0.01112   0.01124   1.93187
   A12        1.92081  -0.00106   0.00000   0.01082   0.01095   1.93176
   A13        3.09920   0.00241   0.00000   0.04341   0.04341   3.14262
   A14        3.17674  -0.00185   0.00000  -0.03323  -0.03323   3.14351
   A15        3.11518  -0.00048   0.00000  -0.00812  -0.00812   3.10706
   A16        3.15626   0.00016   0.00000   0.00274   0.00274   3.15901
   A17        3.13914   0.00070   0.00000   0.01195   0.01195   3.15108
   A18        3.15989   0.00022   0.00000   0.00376   0.00376   3.16365
   A19        3.13912   0.00070   0.00000   0.01189   0.01189   3.15101
   A20        3.12331  -0.00022   0.00000  -0.00377  -0.00377   3.11954
   A21        3.16877  -0.00164   0.00000  -0.10615  -0.10615   3.06262
   A22        3.16660  -0.00108   0.00000  -0.06975  -0.06975   3.09685
    D1       -1.03458   0.00208   0.00000   0.02659   0.02620  -1.00838
    D2        1.03489  -0.00208   0.00000  -0.02685  -0.02646   1.00844
    D3       -3.14131  -0.00001   0.00000  -0.00033  -0.00033   3.14154
    D4        1.05774   0.00093   0.00000   0.01437   0.01397   1.07171
    D5        3.12721  -0.00323   0.00000  -0.03907  -0.03868   3.08853
    D6       -1.04900  -0.00116   0.00000  -0.01255  -0.01256  -1.06155
    D7       -3.12694   0.00323   0.00000   0.03888   0.03850  -3.08845
    D8       -1.05747  -0.00092   0.00000  -0.01455  -0.01416  -1.07163
    D9        1.04951   0.00114   0.00000   0.01197   0.01197   1.06148
         Item               Value     Threshold  Converged?
 Maximum Force            0.026325     0.000450     NO 
 RMS     Force            0.009732     0.000300     NO 
 Maximum Displacement     0.206880     0.001800     NO 
 RMS     Displacement     0.075573     0.001200     NO 
 Predicted change in Energy=-3.989568D-03
 GradGradGradGradGradGradGradGradGradGradGradGradGradGradGradGradGradGrad

                          Input orientation:                          
 ---------------------------------------------------------------------
 Center     Atomic      Atomic             Coordinates (Angstroms)
 Number     Number       Type             X           Y           Z
 ---------------------------------------------------------------------
      1          6           0        0.416147   -0.000642    0.053429
      2          6           0       -0.574028   -0.002218    1.271939
      3          1           0       -0.347787   -0.875654    1.869052
      4          1           0       -0.350933    0.872225    1.868743
      5          6           0       -1.982927   -0.004724    0.862980
      6          6           0        1.805003    0.001912    0.576545
      7          6           0        0.218016   -1.216110   -0.775765
      8          6           0        0.213677    1.213887   -0.776087
      9          6           0       -3.118841   -0.004333    0.532893
     10          1           0       -4.106882    0.015718    0.151823
     11          7           0        0.070518    2.154090   -1.388956
     12          7           0        2.848409    0.002961    1.014711
     13          7           0        0.078148   -2.156989   -1.388360
 ---------------------------------------------------------------------
                    Distance matrix (angstroms):
                    1          2          3          4          5
     1  C    0.000000
     2  C    1.570100   0.000000
     3  H    2.155395   1.081952   0.000000
     4  H    2.155382   1.081942   1.747882   0.000000
     5  C    2.531984   1.467055   2.108171   2.108081   0.000000
     6  C    1.484109   2.478584   2.659924   2.659940   3.798750
     7  C    1.484648   2.508776   2.726004   3.417348   2.999516
     8  C    1.484645   2.508745   3.417336   2.725921   2.999438
     9  C    3.567357   2.649955   3.197383   3.195960   1.182902
    10  H    4.524128   3.706216   4.227791   4.217650   2.239943
    11  N    2.615875   3.485034   4.468662   3.526103   3.734746
    12  N    2.615335   3.432094   3.423088   3.423562   4.833724
    13  N    2.615880   3.485047   3.526183   4.468665   3.734810
                    6          7          8          9         10
     6  C    0.000000
     7  C    2.414715   0.000000
     8  C    2.414708   2.430001   0.000000
     9  C    4.924041   3.783596   3.781953   0.000000
    10  H    5.927138   4.591575   4.578631   1.059171   0.000000
    11  N    3.391682   3.428703   1.131408   4.303987   4.939362
    12  N    1.131674   3.407478   3.408095   5.986674   7.008624
    13  N    3.391715   1.131410   3.428710   4.306492   4.960574
                   11         12         13
    11  N    0.000000
    12  N    4.256953   0.000000
    13  N    4.311086   4.256111   0.000000
 Stoichiometry    C7H3N3
 Framework group  C1[X(C7H3N3)]
 Deg. of freedom    33
 Full point group                 C1      NOp   1
 Largest Abelian subgroup         C1      NOp   1
 Largest concise Abelian subgroup C1      NOp   1
                         Standard orientation:                         
 ---------------------------------------------------------------------
 Center     Atomic      Atomic             Coordinates (Angstroms)
 Number     Number       Type             X           Y           Z
 ---------------------------------------------------------------------
      1          6           0       -0.445035    0.000252   -0.035879
      2          6           0        0.580702   -0.001473   -1.224607
      3          1           0        0.372235   -0.875015   -1.828002
      4          1           0        0.375295    0.872865   -1.827883
      5          6           0        1.976905   -0.003845   -0.774209
      6          6           0       -1.817833    0.002655   -0.599794
      7          6           0       -0.271433   -1.215073    0.799003
      8          6           0       -0.267211    1.214924    0.799060
      9          6           0        3.102572   -0.003347   -0.410712
     10          1           0        4.078925    0.016813   -0.000624
     11          7           0       -0.142258    2.155232    1.415737
     12          7           0       -2.847841    0.003584   -1.068590
     13          7           0       -0.149681   -2.155847    1.415614
 ---------------------------------------------------------------------
 Rotational constants (GHZ):           1.7265835           1.0824543           0.9941165
 Standard basis: GTBas1 (6D, 7F)
 There are   156 symmetry adapted cartesian basis functions of A   symmetry.
 There are   156 symmetry adapted basis functions of A   symmetry.
   156 basis functions,   292 primitive gaussians,   156 cartesian basis functions
    33 alpha electrons       33 beta electrons
       nuclear repulsion energy       406.2088759431 Hartrees.
 NAtoms=   13 NActive=   13 NUniq=   13 SFac= 1.00D+00 NAtFMM=   60 NAOKFM=F Big=F
 Integral buffers will be    131072 words long.
 Raffenetti 1 integral format.
 Two-electron integral symmetry is turned on.
 One-electron integrals computed using PRISM.
 NBasis=   156 RedAO= T EigKep=  3.64D-04  NBF=   156
 NBsUse=   156 1.00D-06 EigRej= -1.00D+00 NBFU=   156
 Initial guess from the checkpoint file:  "/home/artemiy/opt/gaussian/scr/Gau-2710.chk"
 B after Tr=     0.000000    0.000000    0.000000
         Rot=    0.999881   -0.000057    0.015434    0.000579 Ang=  -1.77 deg.
 ExpMin= 1.61D-01 ExpMax= 4.17D+03 ExpMxC= 6.27D+02 IAcc=2 IRadAn=         4 AccDes= 0.00D+00
 Harris functional with IExCor=  205 and IRadAn=       4 diagonalized for initial guess.
 HarFok:  IExCor=  205 AccDes= 0.00D+00 IRadAn=         4 IDoV= 1 UseB2=F ITyADJ=14
 ICtDFT=  3500011 ScaDFX=  1.000000  1.000000  1.000000  1.000000
 FoFCou: FMM=F IPFlag=           0 FMFlag=      100000 FMFlg1=           0
         NFxFlg=           0 DoJE=T BraDBF=F KetDBF=T FulRan=T
         wScrn=  0.000000 ICntrl=       500 IOpCl=  0 I1Cent=   200000004 NGrid=           0
         NMat0=    1 NMatS0=      1 NMatT0=    0 NMatD0=    1 NMtDS0=    0 NMtDT0=    0
 Petite list used in FoFCou.
 Keep R1 ints in memory in canonical form, NReq=76924239.
 Requested convergence on RMS density matrix=1.00D-08 within 128 cycles.
 Requested convergence on MAX density matrix=1.00D-06.
 Requested convergence on             energy=1.00D-06.
 No special actions if energy rises.
 SCF Done:  E(RHF) =  -430.048629268     A.U. after   14 cycles
            NFock= 14  Conv=0.48D-08     -V/T= 2.0015
 Calling FoFJK, ICntrl=      2127 FMM=F ISym2X=0 I1Cent= 0 IOpClX= 0 NMat=1 NMatS=1 NMatT=0.
 ***** Axes restored to original set *****
 -------------------------------------------------------------------
 Center     Atomic                   Forces (Hartrees/Bohr)
 Number     Number              X              Y              Z
 -------------------------------------------------------------------
      1        6          -0.003736789    0.000008352    0.000442986
      2        6           0.000500857   -0.000331692   -0.000392300
      3        1          -0.000245896   -0.000633239   -0.000000530
      4        1          -0.000347115    0.000649517   -0.000016275
      5        6           0.007799607   -0.000063853    0.002730221
      6        6          -0.003588231   -0.000066284   -0.001426918
      7        6           0.001758240    0.004620093    0.001849622
      8        6           0.001764503   -0.004616354    0.001845975
      9        6          -0.003894292    0.001191685   -0.007515532
     10        1          -0.000212838   -0.000800142    0.003786806
     11        7          -0.000876817    0.002003539   -0.001109058
     12        7           0.001943349    0.000035330    0.000910547
     13        7          -0.000864579   -0.001996953   -0.001105546
 -------------------------------------------------------------------
 Cartesian Forces:  Max     0.007799607 RMS     0.002578253

 GradGradGradGradGradGradGradGradGradGradGradGradGradGradGradGradGradGrad
 Berny optimization.
 Using GEDIIS/GDIIS optimizer.
 FormGI is forming the generalized inverse of G from B-inverse, IUseBI=4.
 Internal  Forces:  Max     0.006708419 RMS     0.001906207
 Search for a local minimum.
 Step number   2 out of a maximum of   53
 All quantities printed in internal units (Hartrees-Bohrs-Radians)
 Mixed Optimization -- RFO/linear search
 Update second derivatives using D2CorX and points    1    2
 DE= -2.84D-03 DEPred=-3.99D-03 R= 7.12D-01
 TightC=F SS=  1.41D+00  RLast= 2.07D-01 DXNew= 5.0454D-01 6.2039D-01
 Trust test= 7.12D-01 RLast= 2.07D-01 DXMaxT set to 5.05D-01
 ITU=  1  0
 Use linear search instead of GDIIS.
     Eigenvalues ---    0.00230   0.00779   0.00952   0.04688   0.04793
     Eigenvalues ---    0.05125   0.05128   0.05131   0.05133   0.05133
     Eigenvalues ---    0.05164   0.05375   0.06477   0.08579   0.08970
     Eigenvalues ---    0.15940   0.16000   0.22966   0.24781   0.25000
     Eigenvalues ---    0.25065   0.27300   0.34136   0.34281   0.37195
     Eigenvalues ---    0.37270   0.37567   0.39465   0.40286   1.08020
     Eigenvalues ---    1.40674   1.41791   1.41919
 RFO step:  Lambda=-3.08679920D-03 EMin= 2.30000119D-03
 Quartic linear search produced a step of -0.20338.
 Iteration  1 RMS(Cart)=  0.08810244 RMS(Int)=  0.04659140
 Iteration  2 RMS(Cart)=  0.05421606 RMS(Int)=  0.01568884
 Iteration  3 RMS(Cart)=  0.02499869 RMS(Int)=  0.00126790
 Iteration  4 RMS(Cart)=  0.00125503 RMS(Int)=  0.00003130
 Iteration  5 RMS(Cart)=  0.00000135 RMS(Int)=  0.00003129
 Iteration  6 RMS(Cart)=  0.00000000 RMS(Int)=  0.00003129
 Variable       Old X    -DE/DX   Delta X   Delta X   Delta X     New X
                                 (Linear)    (Quad)   (Total)
    R1        2.96706  -0.00337  -0.00454   0.00469   0.00015   2.96721
    R2        2.80456  -0.00172  -0.01051   0.03042   0.01991   2.82447
    R3        2.80558  -0.00268  -0.01041   0.02801   0.01760   2.82318
    R4        2.80557  -0.00268  -0.01040   0.02801   0.01761   2.82318
    R5        2.04459   0.00046   0.00488  -0.01476  -0.00988   2.03471
    R6        2.04457   0.00044   0.00489  -0.01482  -0.00993   2.03464
    R7        2.77233  -0.00326  -0.00718   0.01651   0.00933   2.78166
    R8        2.23536   0.00499   0.00497  -0.01243  -0.00746   2.22790
    R9        2.13855   0.00214   0.00329  -0.00949  -0.00621   2.13235
   R10        2.13806   0.00237   0.00325  -0.00926  -0.00601   2.13205
   R11        2.13805   0.00237   0.00326  -0.00928  -0.00602   2.13203
   R12        2.00154  -0.00118  -0.00402   0.01069   0.00667   2.00821
    A1        1.89296  -0.00054   0.00545  -0.01889  -0.01342   1.87954
    A2        1.92673   0.00095  -0.00081   0.00537   0.00456   1.93129
    A3        1.92669   0.00093  -0.00080   0.00525   0.00445   1.93115
    A4        1.89986  -0.00009  -0.00034   0.00129   0.00097   1.90084
    A5        1.89986  -0.00008  -0.00033   0.00129   0.00098   1.90084
    A6        1.91716  -0.00119  -0.00315   0.00528   0.00211   1.91927
    A7        1.87260   0.00061   0.00566  -0.01499  -0.00927   1.86333
    A8        1.87259   0.00067   0.00567  -0.01497  -0.00924   1.86335
    A9        1.97068  -0.00296  -0.01009   0.02047   0.01038   1.98105
   A10        1.88065   0.00028   0.00395  -0.00655  -0.00245   1.87819
   A11        1.93187   0.00081  -0.00229   0.00743   0.00513   1.93701
   A12        1.93176   0.00071  -0.00223   0.00630   0.00407   1.93582
   A13        3.14262   0.00097  -0.00883   0.04298   0.03415   3.17676
   A14        3.14351  -0.00158   0.00676  -0.04619  -0.03944   3.10407
   A15        3.10706  -0.00014   0.00165  -0.00729  -0.00564   3.10142
   A16        3.15901   0.00012  -0.00056   0.00347   0.00291   3.16192
   A17        3.15108  -0.00124  -0.00243  -0.01087  -0.01330   3.13778
   A18        3.16365   0.00031  -0.00076   0.00703   0.00626   3.16991
   A19        3.15101  -0.00124  -0.00242  -0.01090  -0.01332   3.13770
   A20        3.11954  -0.00032   0.00077  -0.00716  -0.00639   3.11315
   A21        3.06262   0.00671   0.02159   0.44333   0.46492   3.52754
   A22        3.09685   0.00263   0.01419   0.15872   0.17290   3.26975
    D1       -1.00838  -0.00046  -0.00533   0.01144   0.00616  -1.00222
    D2        1.00844   0.00049   0.00538  -0.01094  -0.00561   1.00283
    D3        3.14154  -0.00003   0.00007  -0.00046  -0.00039   3.14116
    D4        1.07171  -0.00034  -0.00284   0.00462   0.00181   1.07352
    D5        3.08853   0.00061   0.00787  -0.01777  -0.00995   3.07858
    D6       -1.06155   0.00009   0.00255  -0.00728  -0.00473  -1.06628
    D7       -3.08845  -0.00058  -0.00783   0.01833   0.01055  -3.07789
    D8       -1.07163   0.00037   0.00288  -0.00406  -0.00121  -1.07284
    D9        1.06148  -0.00015  -0.00243   0.00643   0.00401   1.06548
         Item               Value     Threshold  Converged?
 Maximum Force            0.006708     0.000450     NO 
 RMS     Force            0.001906     0.000300     NO 
 Maximum Displacement     0.718237     0.001800     NO 
 RMS     Displacement     0.149473     0.001200     NO 
 Predicted change in Energy=-2.052184D-03
 GradGradGradGradGradGradGradGradGradGradGradGradGradGradGradGradGradGrad

                          Input orientation:                          
 ---------------------------------------------------------------------
 Center     Atomic      Atomic             Coordinates (Angstroms)
 Number     Number       Type             X           Y           Z
 ---------------------------------------------------------------------
      1          6           0        0.433017    0.004639    0.029958
      2          6           0       -0.606456    0.019770    1.206705
      3          1           0       -0.409029   -0.852264    1.806632
      4          1           0       -0.383468    0.885403    1.806881
      5          6           0       -2.006612    0.041451    0.752991
      6          6           0        1.800731   -0.016019    0.632366
      7          6           0        0.256826   -1.216043   -0.813143
      8          6           0        0.293317    1.230744   -0.812106
      9          6           0       -3.144586    0.053180    0.445083
     10          1           0       -4.186520   -0.137006    0.531898
     11          7           0        0.185811    2.173654   -1.422224
     12          7           0        2.812520   -0.032116    1.131652
     13          7           0        0.122968   -2.155271   -1.423747
 ---------------------------------------------------------------------
                    Distance matrix (angstroms):
                    1          2          3          4          5
     1  C    0.000000
     2  C    1.570181   0.000000
     3  H    2.144736   1.076723   0.000000
     4  H    2.144726   1.076687   1.737855   0.000000
     5  C    2.544783   1.471993   2.112145   2.111287   0.000000
     6  C    1.494646   2.475015   2.638417   2.638706   3.809687
     7  C    1.493963   2.520373   2.727438   3.419149   3.026090
     8  C    1.493962   2.520248   3.419064   2.726974   3.025496
     9  C    3.601934   2.650149   3.186992   3.189179   1.178953
    10  H    4.648884   3.646478   4.050430   4.139336   2.198346
    11  N    2.621940   3.489724   4.464921   3.522894   3.752941
    12  N    2.622426   3.420194   3.392141   3.392951   4.834546
    13  N    2.621945   3.490293   3.523662   4.465326   3.754849
                    6          7          8          9         10
     6  C    0.000000
     7  C    2.431707   0.000000
     8  C    2.431710   2.447059   0.000000
     9  C    4.949346   3.842352   3.845304   0.000000
    10  H    5.989316   4.766212   4.872990   1.062701   0.000000
    11  N    3.409395   3.444716   1.128220   4.367470   5.317426
    12  N    1.128390   3.422789   3.423360   5.997147   7.025473
    13  N    3.408650   1.128231   3.445029   4.364251   5.144864
                   11         12         13
    11  N    0.000000
    12  N    4.276366   0.000000
    13  N    4.329382   4.274523   0.000000
 Stoichiometry    C7H3N3
 Framework group  C1[X(C7H3N3)]
 Deg. of freedom    33
 Full point group                 C1      NOp   1
 Largest Abelian subgroup         C1      NOp   1
 Largest concise Abelian subgroup C1      NOp   1
                         Standard orientation:                         
 ---------------------------------------------------------------------
 Center     Atomic      Atomic             Coordinates (Angstroms)
 Number     Number       Type             X           Y           Z
 ---------------------------------------------------------------------
      1          6           0       -0.447359   -0.000781   -0.026080
      2          6           0        0.613543    0.002394   -1.183640
      3          1           0        0.422466   -0.871891   -1.782345
      4          1           0        0.406211    0.865858   -1.792490
      5          6           0        2.005256    0.019230   -0.704460
      6          6           0       -1.803910   -0.017585   -0.653339
      7          6           0       -0.293162   -1.217696    0.826719
      8          6           0       -0.316537    1.229206    0.811737
      9          6           0        3.137451    0.026685   -0.375811
     10          1           0        4.179767   -0.169444   -0.442478
     11          7           0       -0.215172    2.174894    1.418599
     12          7           0       -2.806463   -0.031128   -1.170993
     13          7           0       -0.175527   -2.154228    1.444761
 ---------------------------------------------------------------------
 Rotational constants (GHZ):           1.6987949           1.0694995           0.9861201
 Standard basis: GTBas1 (6D, 7F)
 There are   156 symmetry adapted cartesian basis functions of A   symmetry.
 There are   156 symmetry adapted basis functions of A   symmetry.
   156 basis functions,   292 primitive gaussians,   156 cartesian basis functions
    33 alpha electrons       33 beta electrons
       nuclear repulsion energy       404.9352153517 Hartrees.
 NAtoms=   13 NActive=   13 NUniq=   13 SFac= 1.00D+00 NAtFMM=   60 NAOKFM=F Big=F
 Integral buffers will be    131072 words long.
 Raffenetti 1 integral format.
 Two-electron integral symmetry is turned on.
 One-electron integrals computed using PRISM.
 NBasis=   156 RedAO= T EigKep=  6.11D-04  NBF=   156
 NBsUse=   156 1.00D-06 EigRej= -1.00D+00 NBFU=   156
 Initial guess from the checkpoint file:  "/home/artemiy/opt/gaussian/scr/Gau-2710.chk"
 B after Tr=     0.000000    0.000000   -0.000000
         Rot=    0.999945    0.003057    0.009393   -0.003569 Ang=   1.20 deg.
 ExpMin= 1.61D-01 ExpMax= 4.17D+03 ExpMxC= 6.27D+02 IAcc=2 IRadAn=         4 AccDes= 0.00D+00
 Harris functional with IExCor=  205 and IRadAn=       4 diagonalized for initial guess.
 HarFok:  IExCor=  205 AccDes= 0.00D+00 IRadAn=         4 IDoV= 1 UseB2=F ITyADJ=14
 ICtDFT=  3500011 ScaDFX=  1.000000  1.000000  1.000000  1.000000
 FoFCou: FMM=F IPFlag=           0 FMFlag=      100000 FMFlg1=           0
         NFxFlg=           0 DoJE=T BraDBF=F KetDBF=T FulRan=T
         wScrn=  0.000000 ICntrl=       500 IOpCl=  0 I1Cent=   200000004 NGrid=           0
         NMat0=    1 NMatS0=      1 NMatT0=    0 NMatD0=    1 NMtDS0=    0 NMtDT0=    0
 Petite list used in FoFCou.
 Keep R1 ints in memory in canonical form, NReq=76924239.
 Requested convergence on RMS density matrix=1.00D-08 within 128 cycles.
 Requested convergence on MAX density matrix=1.00D-06.
 Requested convergence on             energy=1.00D-06.
 No special actions if energy rises.
 SCF Done:  E(RHF) =  -430.040967358     A.U. after   15 cycles
            NFock= 15  Conv=0.46D-08     -V/T= 2.0014
 Calling FoFJK, ICntrl=      2127 FMM=F ISym2X=0 I1Cent= 0 IOpClX= 0 NMat=1 NMatS=1 NMatT=0.
 ***** Axes restored to original set *****
 -------------------------------------------------------------------
 Center     Atomic                   Forces (Hartrees/Bohr)
 Number     Number              X              Y              Z
 -------------------------------------------------------------------
      1        6           0.002211653   -0.000039700   -0.002708549
      2        6           0.000433599    0.003295729   -0.012740546
      3        1          -0.002221895   -0.004210578    0.001917043
      4        1          -0.000805597    0.003990825    0.002191045
      5        6           0.028263434    0.001418940    0.004515268
      6        6          -0.018333258    0.000203593   -0.010178410
      7        6           0.003018494    0.018276983    0.011326801
      8        6           0.002424158   -0.018421980    0.011320633
      9        6          -0.023462468   -0.012185566    0.017799882
     10        1           0.000476139    0.007760358   -0.015711005
     11        7          -0.001321242    0.010089058   -0.006597970
     12        7           0.010981211   -0.000153203    0.005452823
     13        7          -0.001664229   -0.010024459   -0.006587016
 -------------------------------------------------------------------
 Cartesian Forces:  Max     0.028263434 RMS     0.010385277

 GradGradGradGradGradGradGradGradGradGradGradGradGradGradGradGradGradGrad
 Berny optimization.
 Using GEDIIS/GDIIS optimizer.
 FormGI is forming the generalized inverse of G from B-inverse, IUseBI=4.
 Internal  Forces:  Max     0.033007771 RMS     0.007747568
 Search for a local minimum.
 Step number   3 out of a maximum of   53
 All quantities printed in internal units (Hartrees-Bohrs-Radians)
 Mixed Optimization -- RFO/linear search
 Update second derivatives using D2CorX and points    1    3    2
 DE=  7.66D-03 DEPred=-2.05D-03 R=-3.73D+00
 Trust test=-3.73D+00 RLast= 5.02D-01 DXMaxT set to 2.52D-01
 ITU= -1  1  0
 Use linear search instead of GDIIS.
     Eigenvalues ---    0.00230   0.00763   0.04177   0.04787   0.05083
     Eigenvalues ---    0.05128   0.05130   0.05133   0.05133   0.05135
     Eigenvalues ---    0.05322   0.06457   0.08488   0.09082   0.09278
     Eigenvalues ---    0.15965   0.16017   0.22759   0.24793   0.25000
     Eigenvalues ---    0.25024   0.26966   0.34195   0.34281   0.37197
     Eigenvalues ---    0.37270   0.37450   0.38756   0.40066   1.08289
     Eigenvalues ---    1.41305   1.41805   1.41920
 RFO step:  Lambda=-5.20209577D-04 EMin= 2.29995315D-03
 Quartic linear search produced a step of -0.85300.
 Iteration  1 RMS(Cart)=  0.08221810 RMS(Int)=  0.03444593
 Iteration  2 RMS(Cart)=  0.05308247 RMS(Int)=  0.00620964
 Iteration  3 RMS(Cart)=  0.00730295 RMS(Int)=  0.00007268
 Iteration  4 RMS(Cart)=  0.00008506 RMS(Int)=  0.00003403
 Iteration  5 RMS(Cart)=  0.00000002 RMS(Int)=  0.00003403
 Variable       Old X    -DE/DX   Delta X   Delta X   Delta X     New X
                                 (Linear)    (Quad)   (Total)
    R1        2.96721  -0.00337  -0.00013  -0.01164  -0.01177   2.95544
    R2        2.82447  -0.00863  -0.01699  -0.00596  -0.02295   2.80152
    R3        2.82318  -0.00958  -0.01501  -0.00851  -0.02353   2.79965
    R4        2.82318  -0.00966  -0.01502  -0.00853  -0.02355   2.79963
    R5        2.03471   0.00407   0.00843   0.00227   0.01070   2.04541
    R6        2.03464   0.00426   0.00847   0.00231   0.01079   2.04543
    R7        2.78166  -0.00699  -0.00796  -0.00885  -0.01681   2.76485
    R8        2.22790   0.02168   0.00636   0.00630   0.01267   2.24056
    R9        2.13235   0.01226   0.00529   0.00216   0.00745   2.13980
   R10        2.13205   0.01210   0.00512   0.00227   0.00740   2.13944
   R11        2.13203   0.01207   0.00514   0.00227   0.00741   2.13944
   R12        2.00821  -0.00314  -0.00569  -0.00312  -0.00881   1.99941
    A1        1.87954   0.00262   0.01145  -0.00017   0.01126   1.89080
    A2        1.93129   0.00044  -0.00389   0.00318  -0.00072   1.93057
    A3        1.93115   0.00042  -0.00380   0.00307  -0.00073   1.93042
    A4        1.90084  -0.00115  -0.00083  -0.00017  -0.00102   1.89982
    A5        1.90084  -0.00117  -0.00084  -0.00019  -0.00104   1.89980
    A6        1.91927  -0.00113  -0.00180  -0.00568  -0.00747   1.91181
    A7        1.86333   0.00238   0.00791   0.00481   0.01265   1.87598
    A8        1.86335   0.00169   0.00788   0.00507   0.01289   1.87624
    A9        1.98105  -0.00093  -0.00885  -0.01221  -0.02105   1.96000
   A10        1.87819  -0.00003   0.00209   0.00742   0.00936   1.88755
   A11        1.93701  -0.00216  -0.00438  -0.00276  -0.00714   1.92987
   A12        1.93582  -0.00069  -0.00347  -0.00093  -0.00439   1.93144
   A13        3.17676  -0.00621  -0.02913  -0.00106  -0.03018   3.14658
   A14        3.10407   0.01074   0.03364   0.00494   0.03858   3.14265
   A15        3.10142  -0.00004   0.00481  -0.00263   0.00218   3.10360
   A16        3.16192   0.00006  -0.00248   0.00207  -0.00042   3.16150
   A17        3.13778  -0.00045   0.01134  -0.02030  -0.00896   3.12882
   A18        3.16991  -0.00010  -0.00534   0.00472  -0.00062   3.16929
   A19        3.13770  -0.00026   0.01136  -0.01976  -0.00840   3.12930
   A20        3.11315  -0.00011   0.00545  -0.00544   0.00001   3.11316
   A21        3.52754  -0.03301  -0.39657  -0.01431  -0.41089   3.11665
   A22        3.26975  -0.00519  -0.14749   0.12730  -0.02019   3.24957
    D1       -1.00222  -0.00112  -0.00525  -0.00387  -0.00917  -1.01140
    D2        1.00283   0.00076   0.00478   0.00929   0.01413   1.01696
    D3        3.14116   0.00050   0.00033   0.00396   0.00429  -3.13774
    D4        1.07352  -0.00068  -0.00155  -0.00236  -0.00394   1.06958
    D5        3.07858   0.00121   0.00849   0.01081   0.01936   3.09793
    D6       -1.06628   0.00094   0.00404   0.00547   0.00952  -1.05677
    D7       -3.07789  -0.00153  -0.00900  -0.00530  -0.01436  -3.09226
    D8       -1.07284   0.00036   0.00103   0.00786   0.00894  -1.06390
    D9        1.06548   0.00009  -0.00342   0.00253  -0.00090   1.06458
         Item               Value     Threshold  Converged?
 Maximum Force            0.033008     0.000450     NO 
 RMS     Force            0.007748     0.000300     NO 
 Maximum Displacement     0.585828     0.001800     NO 
 RMS     Displacement     0.135371     0.001200     NO 
 Predicted change in Energy=-2.195265D-04
 GradGradGradGradGradGradGradGradGradGradGradGradGradGradGradGradGradGrad

                          Input orientation:                          
 ---------------------------------------------------------------------
 Center     Atomic      Atomic             Coordinates (Angstroms)
 Number     Number       Type             X           Y           Z
 ---------------------------------------------------------------------
      1          6           0        0.419990   -0.002116    0.054057
      2          6           0       -0.572044   -0.005867    1.263105
      3          1           0       -0.350238   -0.879017    1.863077
      4          1           0       -0.363371    0.873919    1.858094
      5          6           0       -1.970633   -0.018895    0.833656
      6          6           0        1.803682    0.005747    0.586170
      7          6           0        0.233684   -1.214170   -0.777266
      8          6           0        0.220979    1.206088   -0.779897
      9          6           0       -3.105189   -0.024869    0.489380
     10          1           0       -4.125486    0.058176    0.221891
     11          7           0        0.056471    2.145805   -1.389497
     12          7           0        2.842840    0.011396    1.035948
     13          7           0        0.077835   -2.156075   -1.385771
 ---------------------------------------------------------------------
                    Distance matrix (angstroms):
                    1          2          3          4          5
     1  C    0.000000
     2  C    1.563951   0.000000
     3  H    2.152850   1.082384   0.000000
     4  H    2.153054   1.082395   1.752992   0.000000
     5  C    2.514585   1.463096   2.103615   2.104728   0.000000
     6  C    1.482501   2.470314   2.655687   2.658502   3.782501
     7  C    1.481513   2.504457   2.724831   3.414924   2.980397
     8  C    1.481500   2.504312   3.414567   2.722278   2.984511
     9  C    3.552029   2.648743   3.194741   3.193550   1.185656
    10  H    4.548973   3.703401   4.221885   4.182834   2.241335
    11  N    2.613343   3.472899   4.460292   3.512949   3.706412
    12  N    2.614287   3.422474   3.416537   3.420476   4.817818
    13  N    2.613372   3.473079   3.516978   4.460737   3.699948
                    6          7          8          9         10
     6  C    0.000000
     7  C    2.410818   0.000000
     8  C    2.410790   2.420293   0.000000
     9  C    4.909921   3.763895   3.766924   0.000000
    10  H    5.940579   4.649682   4.605762   1.058041   0.000000
    11  N    3.396448   3.419892   1.132141   4.270609   4.944039
    12  N    1.132334   3.405502   3.405691   5.973199   7.015870
    13  N    3.397142   1.132145   3.419315   4.264958   5.015514
                   11         12         13
    11  N    0.000000
    12  N    4.266420   0.000000
    13  N    4.301935   4.267072   0.000000
 Stoichiometry    C7H3N3
 Framework group  C1[X(C7H3N3)]
 Deg. of freedom    33
 Full point group                 C1      NOp   1
 Largest Abelian subgroup         C1      NOp   1
 Largest concise Abelian subgroup C1      NOp   1
                         Standard orientation:                         
 ---------------------------------------------------------------------
 Center     Atomic      Atomic             Coordinates (Angstroms)
 Number     Number       Type             X           Y           Z
 ---------------------------------------------------------------------
      1          6           0       -0.447011    0.000364   -0.034360
      2          6           0        0.564678   -0.002533   -1.227012
      3          1           0        0.355538   -0.877582   -1.828764
      4          1           0        0.362929    0.875394   -1.827112
      5          6           0        1.956090   -0.010155   -0.774722
      6          6           0       -1.821830    0.002667   -0.589046
      7          6           0       -0.270419   -1.209435    0.802348
      8          6           0       -0.265572    1.210852    0.800291
      9          6           0        3.084874   -0.011752   -0.411925
     10          1           0        4.100384    0.075147   -0.127955
     11          7           0       -0.114093    2.152299    1.410599
     12          7           0       -2.853503    0.004042   -1.055769
     13          7           0       -0.121507   -2.149627    1.415225
 ---------------------------------------------------------------------
 Rotational constants (GHZ):           1.7348279           1.0882885           0.9995192
 Standard basis: GTBas1 (6D, 7F)
 There are   156 symmetry adapted cartesian basis functions of A   symmetry.
 There are   156 symmetry adapted basis functions of A   symmetry.
   156 basis functions,   292 primitive gaussians,   156 cartesian basis functions
    33 alpha electrons       33 beta electrons
       nuclear repulsion energy       406.9329165964 Hartrees.
 NAtoms=   13 NActive=   13 NUniq=   13 SFac= 1.00D+00 NAtFMM=   60 NAOKFM=F Big=F
 Integral buffers will be    131072 words long.
 Raffenetti 1 integral format.
 Two-electron integral symmetry is turned on.
 One-electron integrals computed using PRISM.
 NBasis=   156 RedAO= T EigKep=  3.76D-04  NBF=   156
 NBsUse=   156 1.00D-06 EigRej= -1.00D+00 NBFU=   156
 Lowest energy guess from the checkpoint file:  "/home/artemiy/opt/gaussian/scr/Gau-2710.chk"
 B after Tr=     0.000000   -0.000000   -0.000000
         Rot=    0.999992    0.000605   -0.003831    0.000042 Ang=   0.44 deg.
 B after Tr=    -0.000000   -0.000000    0.000000
         Rot=    0.999903   -0.002618   -0.013206    0.003606 Ang=  -1.60 deg.
 Keep R1 ints in memory in canonical form, NReq=76924239.
 Requested convergence on RMS density matrix=1.00D-08 within 128 cycles.
 Requested convergence on MAX density matrix=1.00D-06.
 Requested convergence on             energy=1.00D-06.
 No special actions if energy rises.
 SCF Done:  E(RHF) =  -430.048663295     A.U. after   13 cycles
            NFock= 13  Conv=0.38D-08     -V/T= 2.0015
 Calling FoFJK, ICntrl=      2127 FMM=F ISym2X=0 I1Cent= 0 IOpClX= 0 NMat=1 NMatS=1 NMatT=0.
 ***** Axes restored to original set *****
 -------------------------------------------------------------------
 Center     Atomic                   Forces (Hartrees/Bohr)
 Number     Number              X              Y              Z
 -------------------------------------------------------------------
      1        6           0.001223400   -0.000040281   -0.000406391
      2        6           0.000148090   -0.001526338   -0.001201686
      3        1           0.000202519    0.000000319    0.000151306
      4        1          -0.000340398    0.000084576    0.000014099
      5        6          -0.002260729   -0.000462869   -0.000389185
      6        6          -0.000014419    0.000020616   -0.000086092
      7        6          -0.000760314    0.000110333    0.000474036
      8        6          -0.000723347   -0.000099609    0.000523462
      9        6           0.001113031    0.005315782    0.003164631
     10        1           0.000430788   -0.003427500   -0.001804362
     11        7           0.000353172    0.000026218   -0.000264969
     12        7           0.000200132    0.000012847    0.000050047
     13        7           0.000428075   -0.000014093   -0.000224894
 -------------------------------------------------------------------
 Cartesian Forces:  Max     0.005315782 RMS     0.001319730

 GradGradGradGradGradGradGradGradGradGradGradGradGradGradGradGradGradGrad
 Berny optimization.
 Using GEDIIS/GDIIS optimizer.
 FormGI is forming the generalized inverse of G from B-inverse, IUseBI=4.
 Internal  Forces:  Max     0.006244396 RMS     0.001190368
 Search for a local minimum.
 Step number   4 out of a maximum of   53
 All quantities printed in internal units (Hartrees-Bohrs-Radians)
 Mixed Optimization -- RFO/linear search
 Update second derivatives using D2CorX and points    1    3    2    4
 DE= -3.40D-05 DEPred=-2.20D-04 R= 1.55D-01
 Trust test= 1.55D-01 RLast= 1.68D-01 DXMaxT set to 2.52D-01
 ITU=  0 -1  1  0
 Use linear search instead of GDIIS.
     Eigenvalues ---    0.00230   0.02870   0.04162   0.04476   0.05128
     Eigenvalues ---    0.05129   0.05133   0.05133   0.05134   0.05433
     Eigenvalues ---    0.06293   0.07441   0.08542   0.08930   0.08984
     Eigenvalues ---    0.15991   0.16026   0.22943   0.23621   0.25001
     Eigenvalues ---    0.25042   0.26406   0.34175   0.34282   0.37072
     Eigenvalues ---    0.37270   0.37819   0.39396   0.40302   1.08760
     Eigenvalues ---    1.41708   1.41919   1.42714
 RFO step:  Lambda=-5.13568834D-04 EMin= 2.29938842D-03
 Quartic linear search produced a step of -0.48573.
 Iteration  1 RMS(Cart)=  0.03648966 RMS(Int)=  0.00250388
 Iteration  2 RMS(Cart)=  0.00274037 RMS(Int)=  0.00000963
 Iteration  3 RMS(Cart)=  0.00001313 RMS(Int)=  0.00000324
 Iteration  4 RMS(Cart)=  0.00000000 RMS(Int)=  0.00000324
 Variable       Old X    -DE/DX   Delta X   Delta X   Delta X     New X
                                 (Linear)    (Quad)   (Total)
    R1        2.95544   0.00040   0.00564  -0.01148  -0.00584   2.94960
    R2        2.80152   0.00016   0.00148   0.00055   0.00203   2.80355
    R3        2.79965  -0.00018   0.00288  -0.00320  -0.00032   2.79933
    R4        2.79963  -0.00020   0.00289  -0.00325  -0.00036   2.79927
    R5        2.04541   0.00012  -0.00040  -0.00076  -0.00116   2.04425
    R6        2.04543   0.00001  -0.00042  -0.00080  -0.00122   2.04421
    R7        2.76485   0.00043   0.00363  -0.00576  -0.00212   2.76273
    R8        2.24056  -0.00184  -0.00253   0.00396   0.00143   2.24200
    R9        2.13980   0.00020  -0.00061   0.00032  -0.00029   2.13951
   R10        2.13944   0.00007  -0.00067   0.00047  -0.00021   2.13924
   R11        2.13944   0.00007  -0.00067   0.00046  -0.00022   2.13922
   R12        1.99941  -0.00023   0.00104  -0.00112  -0.00009   1.99932
    A1        1.89080   0.00029   0.00105  -0.00425  -0.00320   1.88760
    A2        1.93057  -0.00006  -0.00187   0.00481   0.00294   1.93351
    A3        1.93042  -0.00017  -0.00181   0.00447   0.00266   1.93308
    A4        1.89982  -0.00006   0.00002   0.00003   0.00005   1.89987
    A5        1.89980  -0.00006   0.00003  -0.00010  -0.00007   1.89973
    A6        1.91181   0.00006   0.00260  -0.00506  -0.00246   1.90934
    A7        1.87598  -0.00023  -0.00164   0.00172   0.00009   1.87607
    A8        1.87624   0.00004  -0.00177   0.00188   0.00011   1.87635
    A9        1.96000   0.00117   0.00518  -0.00662  -0.00144   1.95857
   A10        1.88755  -0.00007  -0.00335   0.00600   0.00266   1.89021
   A11        1.92987  -0.00017   0.00097  -0.00124  -0.00026   1.92961
   A12        1.93144  -0.00075   0.00015  -0.00113  -0.00098   1.93046
   A13        3.14658  -0.00295  -0.00193  -0.01207  -0.01399   3.13259
   A14        3.14265  -0.00127   0.00042  -0.00718  -0.00676   3.13589
   A15        3.10360   0.00008   0.00168  -0.00442  -0.00274   3.10086
   A16        3.16150  -0.00000  -0.00121   0.00319   0.00197   3.16348
   A17        3.12882   0.00096   0.01081  -0.01952  -0.00871   3.12011
   A18        3.16929  -0.00035  -0.00274   0.00491   0.00217   3.17146
   A19        3.12930   0.00089   0.01055  -0.01922  -0.00868   3.12062
   A20        3.11316   0.00037   0.00310  -0.00578  -0.00268   3.11048
   A21        3.11665   0.00184  -0.02624   0.07144   0.04520   3.16185
   A22        3.24957  -0.00624  -0.07418  -0.06389  -0.13807   3.11150
    D1       -1.01140   0.00014   0.00146  -0.00283  -0.00136  -1.01276
    D2        1.01696  -0.00003  -0.00414   0.00598   0.00184   1.01880
    D3       -3.13774  -0.00022  -0.00189   0.00169  -0.00020  -3.13795
    D4        1.06958   0.00021   0.00103  -0.00258  -0.00154   1.06804
    D5        3.09793   0.00004  -0.00457   0.00623   0.00166   3.09959
    D6       -1.05677  -0.00014  -0.00232   0.00194  -0.00038  -1.05715
    D7       -3.09226   0.00014   0.00185  -0.00273  -0.00087  -3.09313
    D8       -1.06390  -0.00004  -0.00375   0.00609   0.00233  -1.06157
    D9        1.06458  -0.00022  -0.00151   0.00179   0.00029   1.06487
         Item               Value     Threshold  Converged?
 Maximum Force            0.006244     0.000450     NO 
 RMS     Force            0.001190     0.000300     NO 
 Maximum Displacement     0.182435     0.001800     NO 
 RMS     Displacement     0.037000     0.001200     NO 
 Predicted change in Energy=-4.817045D-04
 GradGradGradGradGradGradGradGradGradGradGradGradGradGradGradGradGradGrad

                          Input orientation:                          
 ---------------------------------------------------------------------
 Center     Atomic      Atomic             Coordinates (Angstroms)
 Number     Number       Type             X           Y           Z
 ---------------------------------------------------------------------
      1          6           0        0.416851    0.001918    0.055685
      2          6           0       -0.566550    0.008347    1.267779
      3          1           0       -0.352461   -0.867985    1.864804
      4          1           0       -0.346136    0.885662    1.861006
      5          6           0       -1.965855    0.011766    0.844347
      6          6           0        1.802769   -0.006313    0.584986
      7          6           0        0.215628   -1.205904   -0.778010
      8          6           0        0.230271    1.211941   -0.778165
      9          6           0       -3.100101    0.002917    0.496520
     10          1           0       -4.111236   -0.038364    0.187888
     11          7           0        0.065008    2.153467   -1.384550
     12          7           0        2.841395   -0.012322    1.035601
     13          7           0        0.038938   -2.145007   -1.384945
 ---------------------------------------------------------------------
                    Distance matrix (angstroms):
                    1          2          3          4          5
     1  C    0.000000
     2  C    1.560862   0.000000
     3  H    2.149763   1.081772   0.000000
     4  H    2.149961   1.081750   1.753662   0.000000
     5  C    2.509855   1.461972   2.101984   2.102565   0.000000
     6  C    1.483576   2.465785   2.650553   2.653609   3.777582
     7  C    1.481342   2.504288   2.724221   3.413888   2.978864
     8  C    1.481308   2.503887   3.413349   2.721015   2.982605
     9  C    3.544473   2.648349   3.190643   3.197715   1.186413
    10  H    4.530196   3.705826   4.198656   4.222455   2.244128
    11  N    2.612897   3.469186   4.456652   3.508561   3.698549
    12  N    2.615120   3.415908   3.408879   3.412921   4.811114
    13  N    2.612953   3.469941   3.513523   4.457514   3.693319
                    6          7          8          9         10
     6  C    0.000000
     7  C    2.411596   0.000000
     8  C    2.411446   2.417890   0.000000
     9  C    4.903677   3.752297   3.765361   0.000000
    10  H    5.927409   4.584524   4.620087   1.057995   0.000000
    11  N    3.400519   3.417009   1.132027   4.263942   4.971690
    12  N    1.132181   3.407121   3.406837   5.965922   7.004169
    13  N    3.400844   1.132035   3.416708   4.243472   4.912809
                   11         12         13
    11  N    0.000000
    12  N    4.272715   0.000000
    13  N    4.298553   4.273307   0.000000
 Stoichiometry    C7H3N3
 Framework group  C1[X(C7H3N3)]
 Deg. of freedom    33
 Full point group                 C1      NOp   1
 Largest Abelian subgroup         C1      NOp   1
 Largest concise Abelian subgroup C1      NOp   1
                         Standard orientation:                         
 ---------------------------------------------------------------------
 Center     Atomic      Atomic             Coordinates (Angstroms)
 Number     Number       Type             X           Y           Z
 ---------------------------------------------------------------------
      1          6           0       -0.446661   -0.000386   -0.032547
      2          6           0        0.553411    0.003288   -1.230934
      3          1           0        0.348919   -0.875474   -1.827750
      4          1           0        0.339915    0.878163   -1.830263
      5          6           0        1.946715    0.010367   -0.788197
      6          6           0       -1.825107   -0.012629   -0.580938
      7          6           0       -0.255186   -1.204948    0.808133
      8          6           0       -0.273454    1.212858    0.799506
      9          6           0        3.076050    0.004500   -0.424682
     10          1           0        4.082878   -0.034127   -0.101945
     11          7           0       -0.118011    2.156771    1.404774
     12          7           0       -2.857386   -0.021836   -1.045856
     13          7           0       -0.085506   -2.141629    1.420783
 ---------------------------------------------------------------------
 Rotational constants (GHZ):           1.7353941           1.0904275           1.0022398
 Standard basis: GTBas1 (6D, 7F)
 There are   156 symmetry adapted cartesian basis functions of A   symmetry.
 There are   156 symmetry adapted basis functions of A   symmetry.
   156 basis functions,   292 primitive gaussians,   156 cartesian basis functions
    33 alpha electrons       33 beta electrons
       nuclear repulsion energy       407.1567805626 Hartrees.
 NAtoms=   13 NActive=   13 NUniq=   13 SFac= 1.00D+00 NAtFMM=   60 NAOKFM=F Big=F
 Integral buffers will be    131072 words long.
 Raffenetti 1 integral format.
 Two-electron integral symmetry is turned on.
 One-electron integrals computed using PRISM.
 NBasis=   156 RedAO= T EigKep=  3.57D-04  NBF=   156
 NBsUse=   156 1.00D-06 EigRej= -1.00D+00 NBFU=   156
 Initial guess from the checkpoint file:  "/home/artemiy/opt/gaussian/scr/Gau-2710.chk"
 B after Tr=     0.000000    0.000000   -0.000000
         Rot=    0.999991    0.001487   -0.002460   -0.002987 Ang=   0.48 deg.
 ExpMin= 1.61D-01 ExpMax= 4.17D+03 ExpMxC= 6.27D+02 IAcc=2 IRadAn=         4 AccDes= 0.00D+00
 Harris functional with IExCor=  205 and IRadAn=       4 diagonalized for initial guess.
 HarFok:  IExCor=  205 AccDes= 0.00D+00 IRadAn=         4 IDoV= 1 UseB2=F ITyADJ=14
 ICtDFT=  3500011 ScaDFX=  1.000000  1.000000  1.000000  1.000000
 FoFCou: FMM=F IPFlag=           0 FMFlag=      100000 FMFlg1=           0
         NFxFlg=           0 DoJE=T BraDBF=F KetDBF=T FulRan=T
         wScrn=  0.000000 ICntrl=       500 IOpCl=  0 I1Cent=   200000004 NGrid=           0
         NMat0=    1 NMatS0=      1 NMatT0=    0 NMatD0=    1 NMtDS0=    0 NMtDT0=    0
 Petite list used in FoFCou.
 Keep R1 ints in memory in canonical form, NReq=76924239.
 Requested convergence on RMS density matrix=1.00D-08 within 128 cycles.
 Requested convergence on MAX density matrix=1.00D-06.
 Requested convergence on             energy=1.00D-06.
 No special actions if energy rises.
 SCF Done:  E(RHF) =  -430.048935319     A.U. after   13 cycles
            NFock= 13  Conv=0.46D-08     -V/T= 2.0015
 Calling FoFJK, ICntrl=      2127 FMM=F ISym2X=0 I1Cent= 0 IOpClX= 0 NMat=1 NMatS=1 NMatT=0.
 ***** Axes restored to original set *****
 -------------------------------------------------------------------
 Center     Atomic                   Forces (Hartrees/Bohr)
 Number     Number              X              Y              Z
 -------------------------------------------------------------------
      1        6           0.003817265    0.000019255   -0.001405256
      2        6          -0.000898353    0.000741396   -0.000532972
      3        1           0.000058252   -0.000239236    0.000521583
      4        1           0.000349421    0.000223809    0.000556928
      5        6          -0.005540137   -0.000353238   -0.001077338
      6        6          -0.000788391    0.000015806   -0.000484892
      7        6          -0.001525686   -0.000024538    0.001112670
      8        6          -0.001527760    0.000030275    0.001109894
      9        6           0.003723756   -0.001813050    0.001380329
     10        1           0.000198984    0.001402205   -0.000127201
     11        7           0.000720651    0.000269590   -0.000609241
     12        7           0.000673561   -0.000011621    0.000130982
     13        7           0.000738437   -0.000260653   -0.000575485
 -------------------------------------------------------------------
 Cartesian Forces:  Max     0.005540137 RMS     0.001453823

 GradGradGradGradGradGradGradGradGradGradGradGradGradGradGradGradGradGrad
 Berny optimization.
 Using GEDIIS/GDIIS optimizer.
 FormGI is forming the generalized inverse of G from B-inverse, IUseBI=4.
 Internal  Forces:  Max     0.004113826 RMS     0.001027327
 Search for a local minimum.
 Step number   5 out of a maximum of   53
 All quantities printed in internal units (Hartrees-Bohrs-Radians)
 Mixed Optimization -- RFO/linear search
 Update second derivatives using D2CorX and points    1    3    2    4    5
 DE= -2.72D-04 DEPred=-4.82D-04 R= 5.65D-01
 TightC=F SS=  1.41D+00  RLast= 1.47D-01 DXNew= 4.2426D-01 4.4120D-01
 Trust test= 5.65D-01 RLast= 1.47D-01 DXMaxT set to 4.24D-01
 ITU=  1  0 -1  1  0
 Use linear search instead of GDIIS.
     Eigenvalues ---    0.00230   0.03301   0.03963   0.05116   0.05128
     Eigenvalues ---    0.05133   0.05133   0.05134   0.05442   0.05796
     Eigenvalues ---    0.06505   0.08005   0.08488   0.08970   0.09490
     Eigenvalues ---    0.16015   0.16068   0.23156   0.24257   0.25001
     Eigenvalues ---    0.25054   0.26692   0.34250   0.34282   0.36977
     Eigenvalues ---    0.37270   0.37922   0.39837   0.40444   1.12768
     Eigenvalues ---    1.41727   1.41919   1.42986
 RFO step:  Lambda=-1.15102249D-04 EMin= 2.30275142D-03
 Quartic linear search produced a step of -0.30367.
 Iteration  1 RMS(Cart)=  0.01753897 RMS(Int)=  0.00025768
 Iteration  2 RMS(Cart)=  0.00027817 RMS(Int)=  0.00000158
 Iteration  3 RMS(Cart)=  0.00000010 RMS(Int)=  0.00000158
 Variable       Old X    -DE/DX   Delta X   Delta X   Delta X     New X
                                 (Linear)    (Quad)   (Total)
    R1        2.94960   0.00189   0.00177   0.00422   0.00599   2.95559
    R2        2.80355  -0.00023  -0.00062  -0.00105  -0.00167   2.80188
    R3        2.79933   0.00004   0.00010  -0.00049  -0.00039   2.79894
    R4        2.79927   0.00006   0.00011  -0.00047  -0.00036   2.79891
    R5        2.04425   0.00049   0.00035   0.00114   0.00150   2.04575
    R6        2.04421   0.00056   0.00037   0.00117   0.00154   2.04575
    R7        2.76273   0.00150   0.00065   0.00199   0.00264   2.76536
    R8        2.24200  -0.00411  -0.00043  -0.00214  -0.00258   2.23942
    R9        2.13951   0.00067   0.00009   0.00045   0.00053   2.14005
   R10        2.13924   0.00041   0.00006   0.00033   0.00039   2.13963
   R11        2.13922   0.00044   0.00007   0.00034   0.00041   2.13963
   R12        1.99932  -0.00021   0.00003  -0.00055  -0.00052   1.99880
    A1        1.88760   0.00102   0.00097   0.00311   0.00408   1.89169
[...]
 Alpha virt. eigenvalues --    3.22879   3.24539   3.26584   3.27021   3.30910
 Alpha virt. eigenvalues --    3.32785   3.33788   3.34814   3.35051   3.35818
 Alpha virt. eigenvalues --    3.39914   3.41473   3.43959   3.44560   3.45485
 Alpha virt. eigenvalues --    3.48408   3.49182   3.54037   3.55229   3.55844
 Alpha virt. eigenvalues --    3.58402   3.58699   3.59684   3.61160   3.63694
 Alpha virt. eigenvalues --    3.65113   3.65320   3.67062   3.68277   3.70808
 Alpha virt. eigenvalues --    3.71392   3.71971   3.74387   3.76059   3.76530
 Alpha virt. eigenvalues --    3.78733   3.79582   3.79709   3.82201   3.83313
 Alpha virt. eigenvalues --    3.88054   3.88156   3.96125   3.96341   3.97057
 Alpha virt. eigenvalues --    3.97523   3.97826   3.98253   3.98685   3.98712
 Alpha virt. eigenvalues --    4.06413   4.10050   4.11091   4.13246   4.14790
 Alpha virt. eigenvalues --    4.19914   4.24234   4.24314   4.25653   4.25946
 Alpha virt. eigenvalues --    4.30453   4.30492   4.33492   4.36471   4.37257
 Alpha virt. eigenvalues --    4.41396   4.43079   4.45787   4.47206   4.50182
 Alpha virt. eigenvalues --    4.50502   4.53138   4.53477   4.54969   4.56768
 Alpha virt. eigenvalues --    4.59135   4.59252   4.61315   4.65351   4.67244
 Alpha virt. eigenvalues --    4.68180   4.75473   4.76359   4.81152   4.81855
 Alpha virt. eigenvalues --    4.88828   4.91555   4.95647   4.96482   4.97799
 Alpha virt. eigenvalues --    4.99955   5.01698   5.02502   5.03597   5.14641
 Alpha virt. eigenvalues --    5.16295   5.16976   5.22853   5.23367   5.23621
 Alpha virt. eigenvalues --    5.25688   5.25903   5.28316   5.47960   5.60263
 Alpha virt. eigenvalues --    5.60376   5.62069   5.65071   5.66419   5.67507
 Alpha virt. eigenvalues --    5.70548   5.70701   5.75662   5.84887   6.01297
 Alpha virt. eigenvalues --    6.09713   6.11388   6.38464   6.39050   6.40307
 Alpha virt. eigenvalues --    6.47319   6.48565   6.48573   6.55793   6.56723
 Alpha virt. eigenvalues --    6.57981   6.93824   7.16535   7.45060   7.68734
 Alpha virt. eigenvalues --    7.70063  24.82094  25.47702  25.55175  25.73970
 Alpha virt. eigenvalues --   25.73996  26.01106  26.74629  37.63621  37.64118
 Alpha virt. eigenvalues --   37.64208
          Condensed to atoms (all electrons):
               1          2          3          4          5          6
     1  C    7.216044   0.123081   0.032031   0.032032  -0.010822  -1.851865
     2  C    0.123081   5.160396   0.420603   0.420604  -0.470553   0.464896
     3  H    0.032031   0.420603   0.558116  -0.041429  -0.067777  -0.031586
     4  H    0.032032   0.420604  -0.041429   0.558116  -0.067777  -0.031586
     5  C   -0.010822  -0.470553  -0.067777  -0.067777   6.812153  -0.393510
     6  C   -1.851865   0.464896  -0.031586  -0.031586  -0.393510   7.869477
     7  C   -0.769861  -0.211083  -0.052121   0.032830   0.388040  -0.253106
     8  C   -0.769859  -0.211089   0.032830  -0.052121   0.388044  -0.253125
     9  C   -0.123483   0.577801  -0.004505  -0.004505  -0.502583   0.343440
    10  H   -0.003589   0.005520   0.000599   0.000599  -0.044835   0.002981
    11  N    0.153709   0.011508   0.002000   0.000349  -0.032014   0.039337
    12  N    0.233148  -0.005627  -0.000738  -0.000738  -0.000643   0.304216
    13  N    0.153708   0.011508   0.000349   0.002000  -0.032014   0.039335
               7          8          9         10         11         12
     1  C   -0.769861  -0.769859  -0.123483  -0.003589   0.153709   0.233148
     2  C   -0.211083  -0.211089   0.577801   0.005520   0.011508  -0.005627
     3  H   -0.052121   0.032830  -0.004505   0.000599   0.002000  -0.000738
     4  H    0.032830  -0.052121  -0.004505   0.000599   0.000349  -0.000738
     5  C    0.388040   0.388044  -0.502583  -0.044835  -0.032014  -0.000643
     6  C   -0.253106  -0.253125   0.343440   0.002981   0.039337   0.304216
     7  C    6.713715   0.308489  -0.249180  -0.000792  -0.032554  -0.000560
     8  C    0.308489   6.713740  -0.249183  -0.000792   0.375509  -0.000558
     9  C   -0.249180  -0.249183   5.979006   0.455807   0.022558  -0.006863
    10  H   -0.000792  -0.000792   0.455807   0.383086   0.000640  -0.000013
    11  N   -0.032554   0.375509   0.022558   0.000640   6.734297  -0.001614
    12  N   -0.000560  -0.000558  -0.006863  -0.000013  -0.001614   6.749357
    13  N    0.375512  -0.032553   0.022558   0.000640   0.001115  -0.001614
              13
     1  C    0.153708
     2  C    0.011508
     3  H    0.000349
     4  H    0.002000
     5  C   -0.032014
     6  C    0.039335
     7  C    0.375512
     8  C   -0.032553
     9  C    0.022558
    10  H    0.000640
    11  N    0.001115
    12  N   -0.001614
    13  N    6.734297
 Mulliken charges:
               1
     1  C    1.585727
     2  C   -0.297565
     3  H    0.151628
     4  H    0.151628
     5  C    0.034291
     6  C   -0.248903
     7  C   -0.249328
     8  C   -0.249331
     9  C   -0.260869
    10  H    0.200152
    11  N   -0.274838
    12  N   -0.267752
    13  N   -0.274839
 Sum of Mulliken charges =  -0.00000
 Mulliken charges with hydrogens summed into heavy atoms:
               1
     1  C    1.585727
     2  C    0.005691
     5  C    0.034291
     6  C   -0.248903
     7  C   -0.249328
     8  C   -0.249331
     9  C   -0.060717
    11  N   -0.274838
    12  N   -0.267752
    13  N   -0.274839
 Electronic spatial extent (au):  <R**2>=           1318.7048
 Charge=             -0.0000 electrons
 Dipole moment (field-independent basis, Debye):
    X=              2.8215    Y=             -0.0000    Z=             -2.9448  Tot=              4.0783
 Quadrupole moment (field-independent basis, Debye-Ang):
   XX=            -59.0867   YY=            -69.3449   ZZ=            -60.7044
   XY=              0.0000   XZ=             -2.5269   YZ=              0.0000
 Traceless Quadrupole moment (field-independent basis, Debye-Ang):
   XX=              3.9586   YY=             -6.2995   ZZ=              2.3410
   XY=              0.0000   XZ=             -2.5269   YZ=              0.0000
 Octapole moment (field-independent basis, Debye-Ang**2):
  XXX=             78.9405  YYY=             -0.0002  ZZZ=            -12.0190  XYY=             -4.5312
  XXY=              0.0000  XXZ=             18.9936  XZZ=             -0.0393  YZZ=              0.0000
  YYZ=            -22.0943  XYZ=              0.0001
 Hexadecapole moment (field-independent basis, Debye-Ang**3):
 XXXX=           -862.9010 YYYY=           -575.0338 ZZZZ=           -394.6577 XXXY=             -0.0006
 XXXZ=            -17.2676 YYYX=              0.0002 YYYZ=             -0.0000 ZZZX=              2.1687
 ZZZY=              0.0001 XXYY=           -256.3851 XXZZ=           -255.6879 YYZZ=           -175.5209
 XXYZ=             -0.0001 YYXZ=              2.2189 ZZXY=              0.0000
 N-N= 4.037794552802D+02 E-N=-1.809543996385D+03  KE= 4.289387189067D+02
 1\1\GINC-ARTEMIY-VIRTUALBOX\SP\RMP2\GTMP2large\C7H3N3\ARTEMIY\17-Jun-2
 022\0\\#N Geom=AllCheck Guess=TCheck SCRF=Check MP2=FrzG3/GTMP2Large\\
 Title Card Required\\0,1\C,0,0.4221780002,-0.0002400195,0.0702492358\C
 ,0,-0.5565213123,0.0006439538,1.2879217767\H,0,-0.3283452771,-0.885049
 8546,1.891219042\H,0,-0.3280971037,0.8870134205,1.8901318863\C,0,-1.94
 04046617,0.000561989,0.8392049714\C,0,1.8089843287,-0.0001287026,0.568
 9582518\C,0,0.1940640754,-1.2037224639,-0.7482526952\C,0,0.1944022062,
 1.2022998878,-0.7497310514\C,0,-3.0972565921,0.0004854454,0.4568470049
 \H,0,-4.1074398684,0.0004070073,0.1123463127\N,0,0.0034640758,2.179969
 5182,-1.3843292831\N,0,2.9006433314,-0.0000004825,1.0200311594\N,0,0.0
 02848139,-2.1821165451,-1.3816495409\\Version=ES64L-G16RevA.03\State=1
 -A\HF=-430.1551589\MP2=-431.8015579\RMSD=8.785e-09\PG=C01 [X(C7H3N3)]\
 \@


 IT IS THE BEHAVIOR AND DISTRIBUTION OF THE ELECTRONS 
 AROUND THE NUCLEUS THAT GIVES THE FUNDAMENTAL 
 CHARACTER OF AN ATOM:  IT MUST BE THE SAME FOR MOLECULES.

                               -- C. A. COULSON, 1951
 Diagonal vibrational polarizability:
        0.0000000       0.0000000       0.0000000
 
 Temperature=              298.150000 Pressure=                      1.000000
 E(ZPE)=                     0.078335 E(Thermal)=                    0.088314
 E(QCISD(T))=             -431.488624 E(Empiric)=                   -0.213417
 DE(MP2)=                   -0.400898
 G3MP2(0 K)=              -432.024604 G3MP2 Energy=               -432.014625
 G3MP2 Enthalpy=          -432.013681 G3MP2 Free Energy=          -432.060101
 1\1\GINC-ARTEMIY-VIRTUALBOX\Mixed\G3MP2\G3MP2\C7H3N3\ARTEMIY\17-Jun-20
 22\0\\# g3mp2 geom=gic\\Title Card Required\\0,1\C,0,0.4221780002,-0.0
 002400195,0.0702492358\C,0,-0.5565213123,0.0006439538,1.2879217767\H,0
 ,-0.3283452771,-0.8850498546,1.891219042\H,0,-0.3280971037,0.887013420
 5,1.8901318863\C,0,-1.9404046617,0.000561989,0.8392049714\C,0,1.808984
 3287,-0.0001287026,0.5689582518\C,0,0.1940640754,-1.2037224639,-0.7482
 526952\C,0,0.1944022062,1.2022998878,-0.7497310514\C,0,-3.0972565921,0
 .0004854454,0.4568470049\H,0,-4.1074398684,0.0004070073,0.1123463127\N
 ,0,0.0034640758,2.1799695182,-1.3843292831\N,0,2.9006433314,-0.0000004
 825,1.0200311594\N,0,0.002848139,-2.1821165451,-1.3816495409\\Version=
 ES64L-G16RevA.03\State=1-A\MP2/G3Bas1=-431.4006595\QCISD(T)/G3Bas1=-43
 1.4886236\MP2/GTMP2Large=-431.8015579\G3MP2=-432.0246043\FreqCoord=0.7
 870732077,-0.0003652915,0.1066926739,-1.0789680029,0.0015198255,2.3992
 206711,-0.6670389954,-1.653482372,3.5288342344,-0.6668092502,1.6581420
 894,3.5263583735,-3.7272520942,0.0012283883,1.6019688194,3.4070675248,
 -0.0005330921,1.0989956659,0.414864171,-2.2872266931,-1.4641982509,0.4
 161570711,2.2848559411,-1.4669185727,-5.867862834,0.00028407,0.9460393
 243,-7.777690807,-0.0001116188,0.3562281392,0.1281894182,4.0587543196,
 -2.6278509534,5.3762613561,-0.0005493259,1.9365342257,0.1258340139,-4.
 0622835135,-2.6230950925\PG=C01 [X(C7H3N3)]\NImag=0\\0.52461574,0.0000
 5851,0.58643055,0.06357879,-0.00005365,0.51399799,-0.10795318,0.000024
 42,0.02940319,0.57241068,0.00002479,-0.08934293,-0.00003379,0.00007094
 ,0.68022516,0.03490217,-0.00003374,-0.13301786,0.08557605,-0.00010298,
 0.54703183,0.00262831,-0.02052673,0.01530775,-0.06996480,0.05104059,-0
 .03452585,0.08039312,-0.00021509,0.00181954,-0.00261257,0.04582531,-0.
 25791985,0.13283277,-0.05242139,0.27083993,-0.00226604,0.02446508,-0.0
 1965541,-0.03116785,0.12856187,-0.14518806,0.03269564,-0.14351197,0.15
 683945,0.00263461,0.02054832,0.01527730,-0.06998111,-0.05111761,-0.034
 46840,0.00201133,0.00545896,0.00470508,0.08041008,0.00021197,0.0017837
 0,0.00257982,-0.04590209,-0.25829781,-0.13266305,-0.00545637,-0.021807
 91,-0.01693712,0.05250343,0.27125551,-0.00227297,-0.02449583,-0.019624
 28,-0.03112128,-0.12838990,-0.14479776,0.00471685,0.01699135,0.0147358
 0,0.03264521,0.14333820,0.15641462,-0.03519120,0.00000395,-0.00083923,
 -0.30074075,-0.00000731,-0.06756592,-0.01170735,0.00273613,-0.00606921
 ,-0.01170856,-0.00274464,-0.00606563,1.56683567,0.00002471,-0.00176574
 ,0.00000929,-0.00004125,-0.08260707,-0.00001115,0.03180251,0.00479809,
 0.00708198,-0.03183940,0.00479512,-0.00709836,0.00048784,0.11351282,0.
 02701203,0.00000792,0.01287872,-0.07049875,-0.00000292,-0.10236524,-0.
 02273822,-0.00283021,-0.00532371,-0.02269265,0.00281758,-0.00531786,0.
 43305226,0.00015642,0.24919067,-0.26372729,0.00000808,-0.07706453,-0.0
 3751869,0.00000805,-0.00115173,0.00107119,-0.00015057,-0.00149688,0.00
 107305,0.00014823,-0.00149719,-0.00359844,0.00000441,0.00449472,1.6692
 5344,0.00000891,-0.08111678,0.00000391,0.00002532,0.00050130,0.0000103
 7,-0.00135348,0.00011936,-0.00002021,0.00135287,0.00011772,0.00002234,
 0.00000373,0.00100015,-0.00000463,-0.00002599,0.12644249,-0.07361215,0
 .00000376,-0.10969791,0.02555256,0.00000395,0.01663418,0.00078924,0.00
 030853,0.00044176,0.00078553,-0.00030837,0.00044171,0.00473589,-0.0000
 0521,-0.00532276,0.64499578,-0.00001192,0.39658330,-0.08522683,-0.0245
 0351,-0.01690615,0.00743503,0.02280748,0.01361460,0.00056213,-0.000376
 95,-0.00074599,-0.00353083,-0.00071719,0.00455938,0.00070813,0.0017039
 7,0.00119525,-0.01091436,-0.03735138,-0.02792200,0.15877940,-0.0286176
 7,-0.22914077,-0.09664271,0.00845930,-0.00035870,-0.01046959,-0.000588
 32,0.00099158,0.00151544,-0.00086132,0.00023839,0.00087510,-0.00004325
 ,-0.00028391,-0.00013752,-0.00685330,-0.00166870,-0.00592351,0.2039045
 7,1.37305494,-0.02005552,-0.09969260,-0.14485746,0.00030752,-0.0288360
 6,-0.02450309,-0.00123227,-0.00044212,0.00076516,0.00433129,0.00051233
 ,-0.00407880,-0.00081077,-0.00025567,0.00085074,-0.00665383,-0.0155693
 2,-0.01279985,0.13379501,0.81929143,0.66506145,-0.08519894,0.02439797,
 -0.01687820,0.00741988,-0.02279291,0.01364784,-0.00352985,0.00072389,0
 .00455722,0.00056349,0.00037579,-0.00074750,0.00070840,-0.00170096,0.0
 0119580,-0.01088914,0.03732269,-0.02796190,0.00214225,-0.00342878,0.00
 480794,0.15853479,0.02851139,-0.22892774,0.09674740,-0.00846202,-0.000
 29456,0.01043173,0.00086879,0.00023570,-0.00088291,0.00058720,0.000990
 20,-0.00151586,0.00004282,-0.00028273,0.00013700,0.00685099,-0.0016695
 5,0.00592642,0.00340893,-0.04270423,0.01879870,-0.20303258,1.37139499,
 -0.02003230,0.09979440,-0.14508391,0.00033145,0.02880507,-0.02455279,0
 .00433089,-0.00051888,-0.00407681,-0.00123229,0.00044317,0.00076598,-0
 .00081101,0.00025614,0.00085105,-0.00665323,0.01556015,-0.01282514,0.0
 0479301,-0.01873364,0.01521112,0.13354437,-0.82017725,0.66694990,0.001
 27769,-0.00000338,-0.00394243,0.00067938,-0.00002766,-0.00352151,-0.00
 197444,-0.00125995,0.00037512,-0.00198221,0.00126084,0.00037081,-1.208
 93787,-0.00044370,-0.35128028,0.00015499,0.00000014,0.00047961,-0.0005
 9992,-0.00041647,-0.00000806,-0.00059962,0.00041659,-0.00000849,1.6355
 9529,0.00000002,0.00011062,-0.00000253,0.00000195,0.00686559,-0.000000
 02,-0.00170493,0.00036656,-0.00009354,0.00170574,0.00036816,0.00009470
 ,-0.00045607,-0.04515128,-0.00013739,-0.00000026,0.00017196,-0.0000001
 9,-0.00003768,-0.00027814,-0.00013070,0.00003755,-0.00027707,0.0001307
 0,0.00053622,0.06961268,-0.00060821,-0.00000221,-0.00237285,-0.0030349
 3,-0.00000905,0.00578050,0.00003884,-0.00000497,0.00072900,0.00003347,
 0.00000535,0.00072849,-0.35391528,-0.00013415,-0.15374333,-0.00019664,
 -0.00000024,0.00015603,-0.00034589,-0.00039192,-0.00014659,-0.00034638
 ,0.00039215,-0.00014735,0.47699960,0.00016644,0.22097871,0.00033362,0.
 00000009,0.00015319,0.00022124,-0.00000121,-0.00165336,-0.00007144,-0.
 00001796,-0.00008413,-0.00007182,0.00001790,-0.00008416,0.00530973,0.0
 0000028,-0.00090852,0.00000568,-0.00000006,-0.00013975,-0.00004941,0.0
 0002211,0.00002490,-0.00004937,-0.00002206,0.00002486,-0.42458117,-0.0
 0008383,-0.11977474,0.41874654,-0.00000133,0.00024895,-0.00000024,0.00
 000067,0.00695277,0.00000072,-0.00111053,-0.00021573,-0.00024281,0.001
 11222,-0.00021623,0.00024283,-0.00002246,0.00549654,-0.00000634,-0.000
 00017,-0.00010343,0.00000041,-0.00005428,0.00002676,0.00003018,0.00005
 412,0.00002669,-0.00003021,-0.00006290,-0.03228962,-0.00002135,0.00008
 474,0.02020482,-0.00124194,-0.00000040,-0.00025973,-0.00166308,0.00000
 031,0.00581318,0.00069733,0.00012006,0.00011753,0.00069636,-0.00011984
 ,0.00011717,-0.00061211,0.00000027,0.00716715,-0.00013537,0.00000034,0
 .00031461,-0.00002849,0.00000651,-0.00001157,-0.00002845,-0.00000656,-
 0.00001142,-0.11998953,-0.00002760,-0.07248076,0.12240874,0.00002696,0
 .05945685,0.01883578,0.00167231,-0.00212699,-0.00247115,0.00339807,-0.
 00083269,0.00079576,-0.00032366,-0.00076759,-0.00004024,-0.00007533,-0
 .00005379,-0.00073483,-0.00029233,0.00025973,0.00106569,-0.00346851,0.
 00261599,0.00018514,0.00067931,-0.00095879,-0.06722973,0.17229676,-0.1
 1253313,0.00056148,-0.00029066,0.00057889,0.00006472,0.00005885,-0.000
 03748,0.04855583,-0.00036561,0.01086092,0.00574497,0.00374478,-0.00286
 079,-0.00160584,-0.00103325,0.00064144,0.00082894,-0.00021567,0.000045
 51,0.00059396,0.00005220,0.00016923,0.00019889,-0.00042729,-0.00205025
 ,0.00113546,0.00029016,0.00203573,-0.00033187,0.17234203,-1.10082643,0
 .69544910,-0.00035871,0.00026016,-0.00028048,0.00002283,-0.00005952,0.
 00000125,-0.17427331,1.09153391,-0.00055221,0.00538717,0.01481816,-0.0
 0089745,-0.00143835,0.00211887,0.00003729,-0.00004636,0.00020830,0.000
 19568,-0.00010084,0.00011894,-0.00004586,0.00002529,-0.00018470,0.0002
 0378,0.00020034,0.00058707,-0.00094918,0.00373402,-0.00268984,-0.11238
 840,0.69440022,-0.49553720,0.00022415,-0.00002801,0.00018466,-0.000013
 55,0.00000927,-0.00005660,0.11392405,-0.70191010,0.47972355,0.00813680
 ,-0.00000124,-0.00383393,0.00293920,-0.00000281,-0.00319351,-0.0001741
 6,-0.00005398,0.00031879,-0.00017435,0.00005463,0.00031895,-0.00020700
 ,0.00000043,0.00064849,-1.34704385,0.00001599,-0.55293018,-0.00205481,
 0.00078802,-0.00079687,-0.00205677,-0.00078754,-0.00079642,-0.00015561
 ,0.00000007,-0.00000795,0.00007691,-0.00000003,-0.00002857,0.00034944,
 0.00022129,0.00005845,1.34001514,0.00000075,0.01819050,0.00000137,-0.0
 0000189,-0.00000938,-0.00000196,0.00026720,0.00008673,-0.00017083,-0.0
 0026752,0.00008771,0.00017065,-0.00000051,0.00014965,0.00000044,0.0000
 1224,-0.03968958,0.00000496,0.00401196,0.00030114,0.00130723,-0.004008
 63,0.00030189,-0.00130583,0.00000014,-0.00002017,0.00000023,0.00000002
 ,-0.00001248,-0.00000007,0.00061890,0.00037359,0.00002144,-0.00001350,
 0.01986616,-0.00429514,0.00000071,0.01804349,-0.00189542,-0.00000257,-
 0.00506922,-0.00031309,-0.00038660,0.00028768,-0.00031264,0.00038679,0
 .00028687,-0.00100745,0.00000092,0.00150363,-0.55504796,0.00000657,-0.
 27510147,0.00154407,0.00051262,0.00114012,0.00154864,-0.00051253,0.001
 14218,0.00007732,0.00000028,0.00014935,0.00006004,-0.00000011,-0.00010
 985,-0.00027162,-0.00007909,-0.00000363,0.56018408,-0.00000580,0.25773
 456,0.01883488,-0.00167879,-0.00212877,-0.00247574,-0.00340039,-0.0008
 2770,-0.00003981,0.00007526,-0.00005416,0.00079655,0.00032283,-0.00076
 870,-0.00073593,0.00029350,0.00026014,0.00106775,0.00346977,0.00261137
 ,-0.06743591,-0.17304419,-0.11275055,0.00018463,-0.00067928,-0.0009577
 1,0.00056200,0.00029187,0.00057921,0.00006479,-0.00005890,-0.00003742,
 0.00006212,0.00000053,0.00020325,0.00034906,-0.00061917,-0.00027083,0.
 04876561,0.00035866,0.01084917,-0.00574127,-0.00374543,-0.00285373,0.0
 0161274,0.00021591,0.00004456,-0.00059394,0.00103277,0.00063993,-0.000
 82919,-0.00005243,0.00016913,-0.00019924,0.00042556,-0.00205469,-0.001
 13428,-0.17308607,-1.10221410,-0.69468152,-0.00029018,0.00203283,0.000
 32708,0.00035884,0.00026056,0.00028021,-0.00002284,-0.00005952,-0.0000
 0123,-0.00000041,-0.00012352,-0.00025407,-0.00022133,0.00037425,0.0000
 7882,0.17502695,1.09293514,-0.00055651,-0.00538062,0.01483106,-0.00089
 203,0.00144442,0.00211547,0.00019558,0.00010099,0.00011932,0.00003606,
 0.00004598,0.00020913,-0.00004569,-0.00002578,-0.00018435,0.00020307,-
 0.00019769,0.00058847,-0.11260361,-0.69363622,-0.49394140,-0.00095099,
 -0.00373851,-0.00268561,0.00022369,0.00002787,0.00018413,-0.00001353,-
 0.00000930,-0.00005658,0.00020343,0.00025481,0.00071240,0.00005867,-0.
 00002185,-0.00000371,0.11414186,0.70113589,0.47811165\\-0.00000418,-0.
 00000190,0.00000804,0.00000627,-0.00001263,0.00000143,0.00001454,0.000
 00303,-0.00000571,-0.00000018,-0.00000345,-0.00000908,0.00000393,0.000
 02944,-0.00001929,0.00001565,-0.00000509,0.00003192,-0.00001592,-0.000
 01492,-0.00000662,-0.00001827,0.00002080,-0.00001294,-0.00000022,-0.00
 002102,0.00001280,0.00000072,0.00000491,-0.00000556,0.00000586,-0.0000
 1202,0.00000946,-0.00001161,0.00000137,-0.00001216,0.00000341,0.000011
 47,0.00000773\\\@
 Job cpu time:       0 days  0 hours 25 minutes 28.0 seconds.
 Elapsed time:       0 days  0 hours  6 minutes 22.9 seconds.
 File lengths (MBytes):  RWF=   4775 Int=      0 D2E=      0 Chk=     20 Scr=      1
 Normal termination of Gaussian 16 at Fri Jun 17 13:41:08 2022.
