 Entering Gaussian System, Link 0=/home/artemiy/opt/gaussian/g16/g16
 Input=1,1,1,6,6,6-Hexacyanohexyne-3_G3MP2.gjf
 Output=1,1,1,6,6,6-Hexacyanohexyne-3_G3MP2.log
 Initial command:
 /home/artemiy/opt/gaussian/g16/l1.exe "/home/artemiy/opt/gaussian/scr/Gau-109845.inp" -scrdir="/home/artemiy/opt/gaussian/scr/"
 Entering Link 1 = /home/artemiy/opt/gaussian/g16/l1.exe PID=    109849.
  
 Copyright (c) 1988,1990,1992,1993,1995,1998,2003,2009,2016,
            Gaussian, Inc.  All Rights Reserved.
  
 This is part of the Gaussian(R) 16 program.  It is based on
 the Gaussian(R) 09 system (copyright 2009, Gaussian, Inc.),
 the Gaussian(R) 03 system (copyright 2003, Gaussian, Inc.),
 the Gaussian(R) 98 system (copyright 1998, Gaussian, Inc.),
 the Gaussian(R) 94 system (copyright 1995, Gaussian, Inc.),
 the Gaussian 92(TM) system (copyright 1992, Gaussian, Inc.),
 the Gaussian 90(TM) system (copyright 1990, Gaussian, Inc.),
 the Gaussian 88(TM) system (copyright 1988, Gaussian, Inc.),
 the Gaussian 86(TM) system (copyright 1986, Carnegie Mellon
 University), and the Gaussian 82(TM) system (copyright 1983,
 Carnegie Mellon University). Gaussian is a federally registered
 trademark of Gaussian, Inc.
  
 This software contains proprietary and confidential information,
 including trade secrets, belonging to Gaussian, Inc.
  
 This software is provided under written license and may be
 used, copied, transmitted, or stored only in accord with that
 written license.
  
 The following legend is applicable only to US Government
 contracts under FAR:
  
                    RESTRICTED RIGHTS LEGEND
  
 Use, reproduction and disclosure by the US Government is
 subject to restrictions as set forth in subparagraphs (a)
 and (c) of the Commercial Computer Software - Restricted
 Rights clause in FAR 52.227-19.
  
 Gaussian, Inc.
 340 Quinnipiac St., Bldg. 40, Wallingford CT 06492
  
  
 ---------------------------------------------------------------
 Warning -- This program may not be used in any manner that
 competes with the business of Gaussian, Inc. or will provide
 assistance to any competitor of Gaussian, Inc.  The licensee
 of this program is prohibited from giving any competitor of
 Gaussian, Inc. access to this program.  By using this program,
 the user acknowledges that Gaussian, Inc. is engaged in the
 business of creating and licensing software in the field of
 computational chemistry and represents and warrants to the
 licensee that it is not a competitor of Gaussian, Inc. and that
 it will not use this program in any manner prohibited above.
 ---------------------------------------------------------------
  

 Cite this work as:
 Gaussian 16, Revision A.03,
 M. J. Frisch, G. W. Trucks, H. B. Schlegel, G. E. Scuseria, 
 M. A. Robb, J. R. Cheeseman, G. Scalmani, V. Barone, 
 G. A. Petersson, H. Nakatsuji, X. Li, M. Caricato, A. V. Marenich, 
 J. Bloino, B. G. Janesko, R. Gomperts, B. Mennucci, H. P. Hratchian, 
 J. V. Ortiz, A. F. Izmaylov, J. L. Sonnenberg, D. Williams-Young, 
 F. Ding, F. Lipparini, F. Egidi, J. Goings, B. Peng, A. Petrone, 
 T. Henderson, D. Ranasinghe, V. G. Zakrzewski, J. Gao, N. Rega, 
 G. Zheng, W. Liang, M. Hada, M. Ehara, K. Toyota, R. Fukuda, 
 J. Hasegawa, M. Ishida, T. Nakajima, Y. Honda, O. Kitao, H. Nakai, 
 T. Vreven, K. Throssell, J. A. Montgomery, Jr., J. E. Peralta, 
 F. Ogliaro, M. J. Bearpark, J. J. Heyd, E. N. Brothers, K. N. Kudin, 
 V. N. Staroverov, T. A. Keith, R. Kobayashi, J. Normand, 
 K. Raghavachari, A. P. Rendell, J. C. Burant, S. S. Iyengar, 
 J. Tomasi, M. Cossi, J. M. Millam, M. Klene, C. Adamo, R. Cammi, 
 J. W. Ochterski, R. L. Martin, K. Morokuma, O. Farkas, 
 J. B. Foresman, and D. J. Fox, Gaussian, Inc., Wallingford CT, 2016.
 
 ******************************************
 Gaussian 16:  ES64L-G16RevA.03 25-Dec-2016
                17-Jun-2022 
 ******************************************
 %mem=7GB
 %nprocshared=4
 Will use up to    4 processors via shared memory.
 ----------------
 # g3mp2 geom=gic
 ----------------
 1/18=20,19=15,38=1,145=2/1,3;
 2/9=110,12=2,17=6,18=5,40=1/2;
 3/5=33,7=1,11=9,25=1,30=1,71=1/1,2,3;
 4//1;
 5/5=2,38=5/2;
 6/7=2,8=2,9=2,10=2,28=1/1;
 7//1,2,3,16;
 1/18=20,19=15,145=2/3(2);
 2/9=110/2;
 99//99;
 2/9=110/2;
 3/5=33,7=1,11=9,25=1,30=1,71=1/1,2,3;
 4/5=5,16=3,69=1/1;
 5/5=2,38=5/2;
 7//1,2,3,16;
 1/18=20,19=15,145=2/3(-5);
 2/9=110/2;
 6/7=2,8=2,9=2,10=2,19=2,28=1/1;
 99/9=1/99;
 -------------------
 CAS 10350-89-7
 -------------------
 Symbolic Z-matrix:
 Charge =  0 Multiplicity = 1
 C                    -2.47592   0.04819   0.08033 
 C                    -1.98959   0.45741   1.50439 
 H                    -2.15545   1.52954   1.64724 
 H                    -2.5614   -0.09586   2.2553 
 C                    -2.31525  -1.39095  -0.09343 
 C                    -3.87916   0.3953   -0.09615 
 C                    -1.67701   0.7431   -0.92266 
 N                    -1.03509   1.30503  -1.67829 
 N                    -2.19118  -2.51999  -0.18579 
 N                    -4.97851   0.67717  -0.20335 
 C                    -0.57932   0.15219   1.61077 
 C                     0.57937  -0.15203   1.61078 
 C                     1.98967  -0.45712   1.50454 
 H                     2.15566  -1.5292    1.64766 
 H                     2.56139   0.09639   2.25534 
 C                     2.47596  -0.04817   0.08039 
 C                     2.31474   1.39085  -0.09378 
 C                     3.87933  -0.39476  -0.09596 
 C                     1.6774   -0.7438   -0.9224 
 N                     4.97882  -0.6761   -0.20318 
 N                     1.03562  -1.30618  -1.67781 
 N                     2.19012   2.51982  -0.18637 
 
 Initializing the GIC definitions file.

 GradGradGradGradGradGradGradGradGradGradGradGradGradGradGradGradGradGrad
 Berny optimization.
 Initialization pass.
                           ----------------------------
                           !    Initial Parameters    !
                           ! (Angstroms and Degrees)  !
 --------------------------                            --------------------------
 ! Name  Definition              Value          Derivative Info.                !
 --------------------------------------------------------------------------------
 ! R1    R(1,2)                  1.5595         estimate D2E/DX2                !
 ! R2    R(1,5)                  1.4585         estimate D2E/DX2                !
 ! R3    R(1,6)                  1.4563         estimate D2E/DX2                !
 ! R4    R(1,7)                  1.4585         estimate D2E/DX2                !
 ! R5    R(2,3)                  1.0942         estimate D2E/DX2                !
 ! R6    R(2,4)                  1.094          estimate D2E/DX2                !
 ! R7    R(2,11)                 1.4468         estimate D2E/DX2                !
 ! R8    R(5,9)                  1.1396         estimate D2E/DX2                !
 ! R9    R(6,10)                 1.14           estimate D2E/DX2                !
 ! R10   R(7,8)                  1.1397         estimate D2E/DX2                !
 ! R11   R(11,12)                1.198          estimate D2E/DX2                !
 ! R12   R(12,13)                1.4468         estimate D2E/DX2                !
 ! R13   R(13,14)                1.0942         estimate D2E/DX2                !
 ! R14   R(13,15)                1.0941         estimate D2E/DX2                !
 ! R15   R(13,16)                1.5595         estimate D2E/DX2                !
 ! R16   R(16,17)                1.4585         estimate D2E/DX2                !
 ! R17   R(16,18)                1.4563         estimate D2E/DX2                !
 ! R18   R(16,19)                1.4585         estimate D2E/DX2                !
 ! R19   R(17,22)                1.1396         estimate D2E/DX2                !
 ! R20   R(18,20)                1.14           estimate D2E/DX2                !
 ! R21   R(19,21)                1.1397         estimate D2E/DX2                !
 ! A1    A(2,1,5)              109.4733         estimate D2E/DX2                !
 ! A2    A(2,1,6)              110.4033         estimate D2E/DX2                !
 ! A3    A(2,1,7)              109.3982         estimate D2E/DX2                !
 ! A4    A(5,1,6)              109.0815         estimate D2E/DX2                !
 ! A5    A(5,1,7)              109.1399         estimate D2E/DX2                !
 ! A6    A(6,1,7)              109.3241         estimate D2E/DX2                !
 ! A7    A(1,2,3)              109.2111         estimate D2E/DX2                !
 ! A8    A(1,2,4)              109.3332         estimate D2E/DX2                !
 ! A9    A(1,2,11)             108.4071         estimate D2E/DX2                !
 ! A10   A(3,2,4)              109.0661         estimate D2E/DX2                !
 ! A11   A(3,2,11)             110.1721         estimate D2E/DX2                !
 ! A12   A(4,2,11)             110.6281         estimate D2E/DX2                !
 ! A13   L(1,5,9,20,-1)        180.1286         estimate D2E/DX2                !
 ! A14   L(1,5,9,20,-2)        177.8079         estimate D2E/DX2                !
 ! A15   L(1,6,10,3,-1)        178.5363         estimate D2E/DX2                !
 ! A16   L(1,6,10,3,-2)        180.9054         estimate D2E/DX2                !
 ! A17   L(1,7,8,15,-1)        178.5684         estimate D2E/DX2                !
 ! A18   L(1,7,8,15,-2)        181.2813         estimate D2E/DX2                !
 ! A19   L(2,11,12,8,-1)       176.7166         estimate D2E/DX2                !
 ! A20   L(2,11,12,8,-2)       183.7441         estimate D2E/DX2                !
 ! A21   L(11,12,13,21,-1)     176.724          estimate D2E/DX2                !
 ! A22   L(11,12,13,21,-2)     176.2509         estimate D2E/DX2                !
 ! A23   A(12,13,14)           110.173          estimate D2E/DX2                !
 ! A24   A(12,13,15)           110.6279         estimate D2E/DX2                !
 ! A25   A(12,13,16)           108.404          estimate D2E/DX2                !
 ! A26   A(14,13,15)           109.066          estimate D2E/DX2                !
 ! A27   A(14,13,16)           109.212          estimate D2E/DX2                !
 ! A28   A(15,13,16)           109.3347         estimate D2E/DX2                !
 ! A29   A(13,16,17)           109.471          estimate D2E/DX2                !
 ! A30   A(13,16,18)           110.4066         estimate D2E/DX2                !
 ! A31   A(13,16,19)           109.3957         estimate D2E/DX2                !
 ! A32   A(17,16,18)           109.08           estimate D2E/DX2                !
 ! A33   A(17,16,19)           109.1455         estimate D2E/DX2                !
 ! A34   A(18,16,19)           109.3215         estimate D2E/DX2                !
 ! A35   L(16,17,22,10,-1)     180.1221         estimate D2E/DX2                !
 ! A36   L(16,17,22,10,-2)     177.8032         estimate D2E/DX2                !
 ! A37   L(16,18,20,14,-1)     178.5452         estimate D2E/DX2                !
 ! A38   L(16,18,20,14,-2)     180.9049         estimate D2E/DX2                !
 ! A39   L(16,19,21,4,-1)      178.561          estimate D2E/DX2                !
 ! A40   L(16,19,21,4,-2)      181.2773         estimate D2E/DX2                !
 ! D1    D(5,1,2,3)           -177.3719         estimate D2E/DX2                !
 ! D2    D(5,1,2,4)            -58.1071         estimate D2E/DX2                !
 ! D3    D(5,1,2,11)            62.5732         estimate D2E/DX2                !
 ! D4    D(6,1,2,3)            -57.2738         estimate D2E/DX2                !
 ! D5    D(6,1,2,4)             61.9911         estimate D2E/DX2                !
 ! D6    D(6,1,2,11)          -177.3287         estimate D2E/DX2                !
 ! D7    D(7,1,2,3)             63.0765         estimate D2E/DX2                !
 ! D8    D(7,1,2,4)           -177.6586         estimate D2E/DX2                !
 ! D9    D(7,1,2,11)           -56.9784         estimate D2E/DX2                !
 ! D10   D(1,2,13,14)          -78.4588         estimate D2E/DX2                !
 ! D11   D(1,2,13,15)          157.9842         estimate D2E/DX2                !
 ! D12   D(1,2,13,16)           39.2367         estimate D2E/DX2                !
 ! D13   D(3,2,13,14)          163.8479         estimate D2E/DX2                !
 ! D14   D(3,2,13,15)           40.2909         estimate D2E/DX2                !
 ! D15   D(3,2,13,16)          -78.4565         estimate D2E/DX2                !
 ! D16   D(4,2,13,14)           40.292          estimate D2E/DX2                !
 ! D17   D(4,2,13,15)          -83.265          estimate D2E/DX2                !
 ! D18   D(4,2,13,16)          157.9875         estimate D2E/DX2                !
 ! D19   D(12,13,16,17)         62.5578         estimate D2E/DX2                !
 ! D20   D(12,13,16,18)       -177.3453         estimate D2E/DX2                !
 ! D21   D(12,13,16,19)        -56.9978         estimate D2E/DX2                !
 ! D22   D(14,13,16,17)       -177.3873         estimate D2E/DX2                !
 ! D23   D(14,13,16,18)        -57.2905         estimate D2E/DX2                !
 ! D24   D(14,13,16,19)         63.057          estimate D2E/DX2                !
 ! D25   D(15,13,16,17)        -58.1211         estimate D2E/DX2                !
 ! D26   D(15,13,16,18)         61.9757         estimate D2E/DX2                !
 ! D27   D(15,13,16,19)       -177.6767         estimate D2E/DX2                !
 --------------------------------------------------------------------------------
 Trust Radius=3.00D-01 FncErr=1.00D-07 GrdErr=1.00D-07 EigMax=2.50D+02 EigMin=1.00D-04
 Number of steps in this run=     98 maximum allowed number of steps=    132.
 GradGradGradGradGradGradGradGradGradGradGradGradGradGradGradGradGradGrad

                          Input orientation:                          
 ---------------------------------------------------------------------
 Center     Atomic      Atomic             Coordinates (Angstroms)
 Number     Number       Type             X           Y           Z
 ---------------------------------------------------------------------
      1          6           0       -2.475922    0.048193    0.080330
      2          6           0       -1.989585    0.457409    1.504388
      3          1           0       -2.155447    1.529538    1.647243
      4          1           0       -2.561402   -0.095861    2.255295
      5          6           0       -2.315251   -1.390946   -0.093427
      6          6           0       -3.879157    0.395304   -0.096154
      7          6           0       -1.677015    0.743104   -0.922661
      8          7           0       -1.035086    1.305032   -1.678294
      9          7           0       -2.191178   -2.519992   -0.185789
     10          7           0       -4.978510    0.677170   -0.203345
     11          6           0       -0.579317    0.152187    1.610771
     12          6           0        0.579371   -0.152027    1.610781
     13          6           0        1.989673   -0.457124    1.504539
     14          1           0        2.155660   -1.529195    1.647657
     15          1           0        2.561393    0.096394    2.255340
     16          6           0        2.475956   -0.048174    0.080385
     17          6           0        2.314745    1.390855   -0.093780
     18          6           0        3.879332   -0.394764   -0.095962
     19          6           0        1.677405   -0.743796   -0.922397
     20          7           0        4.978819   -0.676098   -0.203178
     21          7           0        1.035618   -1.306185   -1.677812
     22          7           0        2.190121    2.519821   -0.186373
 ---------------------------------------------------------------------
                    Distance matrix (angstroms):
                    1          2          3          4          5
     1  C    0.000000
     2  C    1.559462   0.000000
     3  H    2.179978   1.094248   0.000000
     4  H    2.181407   1.094049   1.782259   0.000000
     5  C    1.458468   2.464851   3.403630   2.693387   0.000000
     6  C    1.456263   2.477110   2.701314   2.739897   2.374131
     7  C    1.458473   2.463715   2.729796   3.403735   2.376793
     8  N    2.597770   3.429140   3.516363   4.445815   3.379190
     9  N    2.597590   3.429615   4.445220   3.460112   1.139592
    10  N    2.595964   3.449394   3.481507   3.533398   3.373742
    11  C    2.439298   1.446836   2.093469   2.098952   2.880802
    12  C    3.423037   2.642398   3.210642   3.206713   3.580235
    13  C    4.714367   4.082997   4.598827   4.626708   4.685925
    14  H    5.137725   4.598932   5.285972   4.967328   4.799951
    15  H    5.487033   4.626625   4.967118   5.126401   5.613425
    16  C    4.952815   4.714282   5.137520   5.487028   4.978846
    17  C    4.978307   4.685373   4.799272   5.612957   5.401414
    18  C    6.373111   6.142598   6.569647   6.863003   6.274173
    19  C    4.345438   4.558398   5.144109   5.337137   4.128837
    20  N    7.495207   7.263558   7.693286   7.952088   7.329837
    21  N    4.154072   4.731651   5.411120   5.465599   3.707531
    22  N    5.286968   4.958039   4.819416   5.948151   5.966667
                    6          7          8          9         10
     6  C    0.000000
     7  C    2.377711   0.000000
     8  N    3.379276   1.139656   0.000000
     9  N    3.369905   3.384545   4.265552   0.000000
    10  N    1.139963   3.379590   4.256791   4.241624   0.000000
    11  C    3.723123   2.823545   3.514930   3.600870   4.787434
    12  C    4.805379   3.508684   3.943033   4.063356   5.904969
    13  C    6.142639   4.558119   4.731257   4.959047   7.263543
    14  H    6.569900   5.143858   5.410698   4.820602   7.693545
    15  H    6.862911   5.336855   5.465249   5.949077   7.951890
    16  C    6.373013   4.345042   4.153498   5.287993   7.495044
    17  C    6.273400   4.128047   3.706673   5.967121   7.328909
    18  C    7.798613   5.731594   5.435494   6.432399   8.923113
    19  C    5.731981   3.669197   3.482339   4.320115   6.843784
    20  N    8.923177   6.843385   6.501377   7.403317  10.048867
    21  N    5.436150   3.482559   3.332607   3.756551   6.502114
    22  N    6.431006   4.318979   3.755463   6.677986   7.401683
                   11         12         13         14         15
    11  C    0.000000
    12  C    1.197958   0.000000
    13  C    2.642395   1.446832   0.000000
    14  H    3.210686   2.093475   1.094245   0.000000
    15  H    3.206655   2.098947   1.094051   1.782257   0.000000
    16  C    3.422998   2.439248   1.559463   2.179989   2.181428
    17  C    3.579858   2.880544   2.464817   3.403616   2.693479
    18  C    4.805377   3.723122   2.477156   2.701516   2.739858
    19  C    3.508920   2.823625   2.463678   2.729607   3.403728
    20  N    5.905027   4.787509   3.449528   3.481895   3.533413
    21  N    3.943304   3.514980   3.429065   3.516102   4.445773
    22  N    4.062659   3.600423   3.429514   4.445153   3.460174
                   16         17         18         19         20
    16  C    0.000000
    17  C    1.458467   0.000000
    18  C    1.456258   2.374104   0.000000
    19  C    1.458474   2.376877   2.377668   0.000000
    20  N    2.595962   3.373656   1.139963   3.379525   0.000000
    21  N    2.597772   3.379252   3.379297   1.139659   4.256804
    22  N    2.597588   1.139592   3.369928   3.384643   4.241582
                   21         22
    21  N    0.000000
    22  N    4.265629   0.000000
 Stoichiometry    C12H4N6
 Framework group  C1[X(C12H4N6)]
 Deg. of freedom    60
 Full point group                 C1      NOp   1
 Largest Abelian subgroup         C1      NOp   1
 Largest concise Abelian subgroup C1      NOp   1
                         Standard orientation:                         
 ---------------------------------------------------------------------
 Center     Atomic      Atomic             Coordinates (Angstroms)
 Number     Number       Type             X           Y           Z
 ---------------------------------------------------------------------
      1          6           0        2.476108   -0.037446    0.047593
      2          6           0        1.991552   -0.448768    1.471652
      3          1           0        2.162065   -1.520168    1.614507
      4          1           0        2.560963    0.106977    2.222559
      5          6           0        2.309195    1.400983   -0.126163
      6          6           0        3.880836   -0.378465   -0.128890
      7          6           0        1.680224   -0.735817   -0.955398
      8          7           0        1.040740   -1.300525   -1.711031
      9          7           0        2.180224    2.529480   -0.218525
     10          7           0        4.981402   -0.655558   -0.236081
     11          6           0        0.579973   -0.149668    1.578035
     12          6           0       -0.580024    0.149515    1.578044
     13          6           0       -1.991637    0.448490    1.471803
     14          1           0       -2.162274    1.519831    1.614921
     15          1           0       -2.560949   -0.107503    2.222604
     16          6           0       -2.476141    0.037434    0.047649
     17          6           0       -2.308687   -1.400882   -0.126516
     18          6           0       -3.881008    0.377932   -0.128698
     19          6           0       -1.680616    0.736515   -0.955133
     20          7           0       -4.981705    0.654493   -0.235914
     21          7           0       -1.041275    1.301683   -1.710548
     22          7           0       -2.179166   -2.529296   -0.219109
 ---------------------------------------------------------------------
 Rotational constants (GHZ):           0.9247251           0.2628068           0.2525768
 Standard basis: GTBas1 (6D, 7F)
 There are   278 symmetry adapted cartesian basis functions of A   symmetry.
 There are   278 symmetry adapted basis functions of A   symmetry.
   278 basis functions,   520 primitive gaussians,   278 cartesian basis functions
    59 alpha electrons       59 beta electrons
       nuclear repulsion energy      1068.8824556184 Hartrees.
 NAtoms=   22 NActive=   22 NUniq=   22 SFac= 1.00D+00 NAtFMM=   60 NAOKFM=F Big=F
 Integral buffers will be    131072 words long.
 Raffenetti 1 integral format.
 Two-electron integral symmetry is turned on.
 One-electron integrals computed using PRISM.
 NBasis=   278 RedAO= T EigKep=  1.56D-04  NBF=   278
 NBsUse=   278 1.00D-06 EigRej= -1.00D+00 NBFU=   278
 ExpMin= 1.61D-01 ExpMax= 4.17D+03 ExpMxC= 6.27D+02 IAcc=3 IRadAn=         5 AccDes= 0.00D+00
 Harris functional with IExCor=  205 and IRadAn=       5 diagonalized for initial guess.
 HarFok:  IExCor=  205 AccDes= 0.00D+00 IRadAn=         5 IDoV= 1 UseB2=F ITyADJ=14
 ICtDFT=  3500011 ScaDFX=  1.000000  1.000000  1.000000  1.000000
 FoFCou: FMM=F IPFlag=           0 FMFlag=      100000 FMFlg1=           0
         NFxFlg=           0 DoJE=T BraDBF=F KetDBF=T FulRan=T
         wScrn=  0.000000 ICntrl=       500 IOpCl=  0 I1Cent=   200000004 NGrid=           0
         NMat0=    1 NMatS0=      1 NMatT0=    0 NMatD0=    1 NMtDS0=    0 NMtDT0=    0
 Petite list used in FoFCou.
 Keep R1 ints in memory in canonical form, NReq=762862702.
 Requested convergence on RMS density matrix=1.00D-08 within 128 cycles.
 Requested convergence on MAX density matrix=1.00D-06.
 Requested convergence on             energy=1.00D-06.
 No special actions if energy rises.
 SCF Done:  E(RHF) =  -783.267444633     A.U. after   14 cycles
            NFock= 14  Conv=0.46D-08     -V/T= 2.0015

 **********************************************************************

            Population analysis using the SCF density.

 **********************************************************************

 Orbital symmetries:
       Occupied  (A) (A) (A) (A) (A) (A) (A) (A) (A) (A) (A) (A)
                 (A) (A) (A) (A) (A) (A) (A) (A) (A) (A) (A) (A)
                 (A) (A) (A) (A) (A) (A) (A) (A) (A) (A) (A) (A)
                 (A) (A) (A) (A) (A) (A) (A) (A) (A) (A) (A) (A)
                 (A) (A) (A) (A) (A) (A) (A) (A) (A) (A) (A)
       Virtual   (A) (A) (A) (A) (A) (A) (A) (A) (A) (A) (A) (A)
                 (A) (A) (A) (A) (A) (A) (A) (A) (A) (A) (A) (A)
                 (A) (A) (A) (A) (A) (A) (A) (A) (A) (A) (A) (A)
                 (A) (A) (A) (A) (A) (A) (A) (A) (A) (A) (A) (A)
                 (A) (A) (A) (A) (A) (A) (A) (A) (A) (A) (A) (A)
                 (A) (A) (A) (A) (A) (A) (A) (A) (A) (A) (A) (A)
                 (A) (A) (A) (A) (A) (A) (A) (A) (A) (A) (A) (A)
                 (A) (A) (A) (A) (A) (A) (A) (A) (A) (A) (A) (A)
                 (A) (A) (A) (A) (A) (A) (A) (A) (A) (A) (A) (A)
                 (A) (A) (A) (A) (A) (A) (A) (A) (A) (A) (A) (A)
                 (A) (A) (A) (A) (A) (A) (A) (A) (A) (A) (A) (A)
                 (A) (A) (A) (A) (A) (A) (A) (A) (A) (A) (A) (A)
                 (A) (A) (A) (A) (A) (A) (A) (A) (A) (A) (A) (A)
                 (A) (A) (A) (A) (A) (A) (A) (A) (A) (A) (A) (A)
                 (A) (A) (A) (A) (A) (A) (A) (A) (A) (A) (A) (A)
                 (A) (A) (A) (A) (A) (A) (A) (A) (A) (A) (A) (A)
                 (A) (A) (A) (A) (A) (A) (A) (A) (A) (A) (A) (A)
                 (A) (A) (A) (A) (A) (A) (A) (A) (A) (A) (A) (A)
                 (A) (A) (A)
 The electronic state is 1-A.
 Alpha  occ. eigenvalues --  -15.63793 -15.63793 -15.63224 -15.63224 -15.63171
 Alpha  occ. eigenvalues --  -15.63170 -11.42413 -11.42413 -11.34737 -11.34737
 Alpha  occ. eigenvalues --  -11.33440 -11.33440 -11.32937 -11.32936 -11.32867
 Alpha  occ. eigenvalues --  -11.32867 -11.29826 -11.29444  -1.31034  -1.30856
 Alpha  occ. eigenvalues --   -1.27709  -1.27618  -1.27314  -1.27258  -1.20901
 Alpha  occ. eigenvalues --   -1.20115  -1.11488  -1.05353  -0.98499  -0.85651
 Alpha  occ. eigenvalues --   -0.85088  -0.85059  -0.84979  -0.73823  -0.71569
 Alpha  occ. eigenvalues --   -0.69570  -0.67674  -0.67194  -0.66027  -0.61216
 Alpha  occ. eigenvalues --   -0.61178  -0.60720  -0.60394  -0.60175  -0.60170
 Alpha  occ. eigenvalues --   -0.54880  -0.54548  -0.53952  -0.53767  -0.52274
 Alpha  occ. eigenvalues --   -0.51678  -0.51496  -0.51392  -0.51383  -0.50959
 Alpha  occ. eigenvalues --   -0.50645  -0.50160  -0.44340  -0.43865
 Alpha virt. eigenvalues --    0.09733   0.10643   0.11401   0.12097   0.12701
 Alpha virt. eigenvalues --    0.12972   0.13963   0.16113   0.18688   0.18721
 Alpha virt. eigenvalues --    0.19247   0.19280   0.20746   0.24062   0.25844
 Alpha virt. eigenvalues --    0.26292   0.27279   0.27482   0.27924   0.28144
 Alpha virt. eigenvalues --    0.31657   0.33448   0.35742   0.36032   0.36187
 Alpha virt. eigenvalues --    0.37542   0.42066   0.42693   0.50396   0.51583
 Alpha virt. eigenvalues --    0.53395   0.54857   0.55772   0.59536   0.59630
 Alpha virt. eigenvalues --    0.60363   0.66721   0.67104   0.68854   0.69826
 Alpha virt. eigenvalues --    0.72891   0.73876   0.75099   0.75281   0.75463
 Alpha virt. eigenvalues --    0.77630   0.78393   0.81328   0.81524   0.81935
 Alpha virt. eigenvalues --    0.82194   0.82582   0.83796   0.83948   0.87005
 Alpha virt. eigenvalues --    0.87082   0.87349   0.87691   0.89576   0.89758
 Alpha virt. eigenvalues --    0.90453   0.91516   0.94198   0.94697   0.97101
 Alpha virt. eigenvalues --    0.99512   1.00283   1.00929   1.03445   1.03529
 Alpha virt. eigenvalues --    1.04255   1.05194   1.05477   1.05530   1.06057
 Alpha virt. eigenvalues --    1.06799   1.07437   1.08332   1.08908   1.10617
 Alpha virt. eigenvalues --    1.11005   1.12534   1.12611   1.13782   1.16461
 Alpha virt. eigenvalues --    1.17045   1.18883   1.19831   1.19984   1.20800
 Alpha virt. eigenvalues --    1.22876   1.28695   1.29082   1.32968   1.34266
 Alpha virt. eigenvalues --    1.38472   1.41433   1.41761   1.42803   1.43372
 Alpha virt. eigenvalues --    1.46753   1.47194   1.52842   1.60500   1.63235
 Alpha virt. eigenvalues --    1.65472   1.69747   1.71003   1.71499   1.73916
 Alpha virt. eigenvalues --    1.73938   1.74441   1.74463   1.74547   1.75025
 Alpha virt. eigenvalues --    1.75418   1.75442   1.76947   1.77926   1.80871
 Alpha virt. eigenvalues --    1.81095   1.81732   1.85488   1.86352   1.87309
 Alpha virt. eigenvalues --    1.89114   1.89447   1.90946   1.92089   1.92446
 Alpha virt. eigenvalues --    1.94724   1.97033   2.00800   2.04744   2.04889
 Alpha virt. eigenvalues --    2.08387   2.12419   2.15032   2.16019   2.18860
 Alpha virt. eigenvalues --    2.19414   2.19707   2.22506   2.22653   2.23459
 Alpha virt. eigenvalues --    2.24053   2.24066   2.24741   2.24981   2.25762
 Alpha virt. eigenvalues --    2.25773   2.27611   2.28711   2.30295   2.30759
 Alpha virt. eigenvalues --    2.32247   2.35149   2.35511   2.36854   2.37548
 Alpha virt. eigenvalues --    2.39278   2.44278   2.45688   2.47948   2.50144
 Alpha virt. eigenvalues --    2.50435   2.54909   2.55500   2.60511   2.60577
 Alpha virt. eigenvalues --    2.61593   2.71296   2.74186   2.90322   2.90989
 Alpha virt. eigenvalues --    2.95555   2.96203   2.96246   2.97610   3.01263
 Alpha virt. eigenvalues --    3.01500   3.09254   3.10654   3.13703   3.14466
 Alpha virt. eigenvalues --    3.15785   3.19369   3.21026   3.21849   3.25127
 Alpha virt. eigenvalues --    3.32099   3.32107   3.33359   3.35913   3.50794
 Alpha virt. eigenvalues --    3.51638   3.68558   3.68700   3.71992   3.73196
 Alpha virt. eigenvalues --    3.88054   4.44823   4.46413   4.48500   4.49032
 Alpha virt. eigenvalues --    4.51695   4.52471   4.55423   4.60063   4.70277
 Alpha virt. eigenvalues --    4.70993   4.86173   4.88208   4.88532   4.89575
 Alpha virt. eigenvalues --    4.99059   5.23256   5.50089   5.50480
          Condensed to atoms (all electrons):
               1          2          3          4          5          6
     1  C    5.093557   0.368567  -0.036580  -0.034798   0.307759   0.320598
     2  C    0.368567   5.128166   0.406312   0.396009  -0.054855  -0.057338
     3  H   -0.036580   0.406312   0.425021  -0.015301   0.005091  -0.002401
     4  H   -0.034798   0.396009  -0.015301   0.426661  -0.002647  -0.003292
     5  C    0.307759  -0.054855   0.005091  -0.002647   4.617296  -0.072818
     6  C    0.320598  -0.057338  -0.002401  -0.003292  -0.072818   4.593466
     7  C    0.310520  -0.059256  -0.003093   0.005324  -0.081878  -0.073024
     8  N   -0.045814  -0.002389   0.000156  -0.000000  -0.003308  -0.003299
     9  N   -0.047754  -0.002264  -0.000008   0.000281   0.919840  -0.003781
    10  N   -0.053950  -0.001361   0.000162   0.000115  -0.003466   0.933437
    11  C   -0.050692   0.233274  -0.042378  -0.036060  -0.009947   0.007905
    12  C   -0.002753  -0.034212  -0.005786  -0.002503  -0.000507   0.000212
    13  C    0.000036   0.003788  -0.000069  -0.000062  -0.000056   0.000002
    14  H   -0.000000  -0.000069  -0.000004   0.000009  -0.000000  -0.000000
    15  H   -0.000002  -0.000062   0.000009  -0.000000   0.000000   0.000000
    16  C   -0.000016   0.000036   0.000000  -0.000002   0.000023  -0.000000
    17  C    0.000023  -0.000056  -0.000000   0.000000  -0.000003  -0.000001
    18  C   -0.000000   0.000002  -0.000000   0.000000  -0.000001   0.000000
    19  C   -0.000016  -0.000061   0.000004  -0.000000   0.000538   0.000008
    20  N   -0.000000  -0.000000  -0.000000   0.000000  -0.000000  -0.000000
    21  N   -0.000084   0.000021  -0.000000  -0.000001   0.001008   0.000005
    22  N    0.000007   0.000012   0.000008  -0.000000  -0.000000  -0.000000
               7          8          9         10         11         12
     1  C    0.310520  -0.045814  -0.047754  -0.053950  -0.050692  -0.002753
     2  C   -0.059256  -0.002389  -0.002264  -0.001361   0.233274  -0.034212
     3  H   -0.003093   0.000156  -0.000008   0.000162  -0.042378  -0.005786
     4  H    0.005324  -0.000000   0.000281   0.000115  -0.036060  -0.002503
     5  C   -0.081878  -0.003308   0.919840  -0.003466  -0.009947  -0.000507
     6  C   -0.073024  -0.003299  -0.003781   0.933437   0.007905   0.000212
     7  C    4.634231   0.901699  -0.003069  -0.003387  -0.009347   0.000718
     8  N    0.901699   6.545786  -0.000082  -0.000139  -0.001886  -0.000477
     9  N   -0.003069  -0.000082   6.527649  -0.000151  -0.001734  -0.000179
    10  N   -0.003387  -0.000139  -0.000151   6.518825  -0.000078  -0.000002
    11  C   -0.009347  -0.001886  -0.001734  -0.000078   4.863692   1.123762
    12  C    0.000718  -0.000477  -0.000179  -0.000002   1.123762   4.863686
    13  C   -0.000061   0.000021   0.000012  -0.000000  -0.034212   0.233251
    14  H    0.000004  -0.000000   0.000008  -0.000000  -0.005787  -0.042380
    15  H   -0.000000  -0.000001  -0.000000   0.000000  -0.002502  -0.036058
    16  C   -0.000016  -0.000084   0.000007  -0.000000  -0.002757  -0.050701
    17  C    0.000539   0.001009  -0.000000  -0.000000  -0.000507  -0.009950
    18  C    0.000008   0.000005  -0.000000  -0.000000   0.000212   0.007905
    19  C    0.000828   0.000529   0.000124  -0.000000   0.000717  -0.009346
    20  N   -0.000000   0.000000  -0.000000   0.000000  -0.000002  -0.000079
    21  N    0.000528  -0.001585  -0.000469   0.000000  -0.000476  -0.001884
    22  N    0.000124  -0.000470  -0.000000  -0.000000  -0.000180  -0.001737
              13         14         15         16         17         18
     1  C    0.000036  -0.000000  -0.000002  -0.000016   0.000023  -0.000000
     2  C    0.003788  -0.000069  -0.000062   0.000036  -0.000056   0.000002
     3  H   -0.000069  -0.000004   0.000009   0.000000  -0.000000  -0.000000
     4  H   -0.000062   0.000009  -0.000000  -0.000002   0.000000   0.000000
     5  C   -0.000056  -0.000000   0.000000   0.000023  -0.000003  -0.000001
     6  C    0.000002  -0.000000   0.000000  -0.000000  -0.000001   0.000000
     7  C   -0.000061   0.000004  -0.000000  -0.000016   0.000539   0.000008
     8  N    0.000021  -0.000000  -0.000001  -0.000084   0.001009   0.000005
     9  N    0.000012   0.000008  -0.000000   0.000007  -0.000000  -0.000000
    10  N   -0.000000  -0.000000   0.000000  -0.000000  -0.000000  -0.000000
    11  C   -0.034212  -0.005787  -0.002502  -0.002757  -0.000507   0.000212
    12  C    0.233251  -0.042380  -0.036058  -0.050701  -0.009950   0.007905
    13  C    5.128179   0.406315   0.396008   0.368575  -0.054858  -0.057335
    14  H    0.406315   0.425023  -0.015301  -0.036579   0.005091  -0.002402
    15  H    0.396008  -0.015301   0.426657  -0.034796  -0.002648  -0.003291
    16  C    0.368575  -0.036579  -0.034796   5.093564   0.307786   0.320573
    17  C   -0.054858   0.005091  -0.002648   0.307786   4.617266  -0.072820
    18  C   -0.057335  -0.002402  -0.003291   0.320573  -0.072820   4.593492
    19  C   -0.059257  -0.003093   0.005324   0.310523  -0.081869  -0.073024
    20  N   -0.001360   0.000162   0.000115  -0.053954  -0.003467   0.933444
    21  N   -0.002390   0.000156  -0.000000  -0.045817  -0.003307  -0.003299
    22  N   -0.002264  -0.000008   0.000281  -0.047753   0.919822  -0.003779
              19         20         21         22
     1  C   -0.000016  -0.000000  -0.000084   0.000007
     2  C   -0.000061  -0.000000   0.000021   0.000012
     3  H    0.000004  -0.000000  -0.000000   0.000008
     4  H   -0.000000   0.000000  -0.000001  -0.000000
     5  C    0.000538  -0.000000   0.001008  -0.000000
     6  C    0.000008  -0.000000   0.000005  -0.000000
     7  C    0.000828  -0.000000   0.000528   0.000124
     8  N    0.000529   0.000000  -0.001585  -0.000470
     9  N    0.000124  -0.000000  -0.000469  -0.000000
    10  N   -0.000000   0.000000   0.000000  -0.000000
    11  C    0.000717  -0.000002  -0.000476  -0.000180
    12  C   -0.009346  -0.000079  -0.001884  -0.001737
    13  C   -0.059257  -0.001360  -0.002390  -0.002264
    14  H   -0.003093   0.000162   0.000156  -0.000008
    15  H    0.005324   0.000115  -0.000000   0.000281
    16  C    0.310523  -0.053954  -0.045817  -0.047753
    17  C   -0.081869  -0.003467  -0.003307   0.919822
    18  C   -0.073024   0.933444  -0.003299  -0.003779
    19  C    4.634212  -0.003388   0.901707  -0.003068
    20  N   -0.003388   6.518830  -0.000139  -0.000151
    21  N    0.901707  -0.000139   6.545770  -0.000082
    22  N   -0.003068  -0.000151  -0.000082   6.527674
 Mulliken charges:
               1
     1  C   -0.128610
     2  C   -0.324265
     3  H    0.268857
     4  H    0.266265
     5  C    0.377929
     6  C    0.360321
     7  C    0.378606
     8  N   -0.389670
     9  N   -0.388430
    10  N   -0.390005
    11  C   -0.031018
    12  C   -0.030981
    13  C   -0.324263
    14  H    0.268854
    15  H    0.266267
    16  C   -0.128613
    17  C    0.377948
    18  C    0.360311
    19  C    0.378607
    20  N   -0.390010
    21  N   -0.389663
    22  N   -0.388438
 Sum of Mulliken charges =  -0.00000
 Mulliken charges with hydrogens summed into heavy atoms:
               1
     1  C   -0.128610
     2  C    0.210858
     5  C    0.377929
     6  C    0.360321
     7  C    0.378606
     8  N   -0.389670
     9  N   -0.388430
    10  N   -0.390005
    11  C   -0.031018
    12  C   -0.030981
    13  C    0.210859
    16  C   -0.128613
    17  C    0.377948
    18  C    0.360311
    19  C    0.378607
    20  N   -0.390010
    21  N   -0.389663
    22  N   -0.388438
 Electronic spatial extent (au):  <R**2>=           4321.5371
 Charge=             -0.0000 electrons
 Dipole moment (field-independent basis, Debye):
    X=             -0.0004    Y=             -0.0006    Z=              6.4822  Tot=              6.4822
 Quadrupole moment (field-independent basis, Debye-Ang):
   XX=           -124.8311   YY=           -118.7867   ZZ=           -100.3714
   XY=             -4.5763   XZ=             -0.0019   YZ=             -0.0011
 Traceless Quadrupole moment (field-independent basis, Debye-Ang):
   XX=            -10.1680   YY=             -4.1237   ZZ=             14.2917
   XY=             -4.5763   XZ=             -0.0019   YZ=             -0.0011
 Octapole moment (field-independent basis, Debye-Ang**2):
  XXX=              0.0149  YYY=             -0.0144  ZZZ=             22.7717  XYY=             -0.0189
  XXY=              0.0139  XXZ=             35.4292  XZZ=             -0.0009  YZZ=             -0.0015
  YYZ=             16.4491  XYZ=             -8.2124
 Hexadecapole moment (field-independent basis, Debye-Ang**3):
 XXXX=          -5809.9288 YYYY=          -1030.2642 ZZZZ=           -723.5675 XXXY=            182.4614
 XXXZ=              0.0122 YYYX=           -115.6718 YYYZ=              0.0002 ZZZX=             -0.0019
 ZZZY=              0.0002 XXYY=           -966.6529 XXZZ=           -795.7355 YYZZ=           -277.7737
 XXYZ=             -0.0156 YYXZ=             -0.0163 ZZXY=              4.4991
 N-N= 1.068882455618D+03 E-N=-3.963288399209D+03  KE= 7.821166070347D+02
 Calling FoFJK, ICntrl=      2127 FMM=F ISym2X=0 I1Cent= 0 IOpClX= 0 NMat=1 NMatS=1 NMatT=0.
 ***** Axes restored to original set *****
 -------------------------------------------------------------------
 Center     Atomic                   Forces (Hartrees/Bohr)
 Number     Number              X              Y              Z
 -------------------------------------------------------------------
      1        6           0.003072412    0.002319383    0.008810481
      2        6          -0.010225175    0.007070180    0.008346952
      3        1          -0.001619527   -0.008302738   -0.001961420
      4        1           0.002166897    0.004882050   -0.006770280
      5        6           0.003178706   -0.041012662   -0.002929128
      6        6          -0.040313106    0.010914550   -0.002503984
      7        6           0.020863229    0.022034354   -0.028178915
      8        7          -0.014726986   -0.010275878    0.014606392
      9        7          -0.003056005    0.022042592    0.001734719
     10        7           0.021713241   -0.005433972    0.002427087
     11        6           0.045393828   -0.012760440    0.006414442
     12        6          -0.045399417    0.012759557    0.006425796
     13        6           0.010227400   -0.007067890    0.008345897
     14        1           0.001620594    0.008300317   -0.001963796
     15        1          -0.002167476   -0.004882236   -0.006771041
     16        6          -0.003059457   -0.002329043    0.008813645
     17        6          -0.003208645    0.041007694   -0.002943705
     18        6           0.040325925   -0.010892651   -0.002504221
     19        6          -0.020876848   -0.022035714   -0.028176112
     20        7          -0.021716502    0.005419577    0.002431687
     21        7           0.014733291    0.010284154    0.014608312
     22        7           0.003073620   -0.022041185    0.001737192
 -------------------------------------------------------------------
 Cartesian Forces:  Max     0.045399417 RMS     0.016912469

 GradGradGradGradGradGradGradGradGradGradGradGradGradGradGradGradGradGrad
 Berny optimization.
 FormGI is forming the generalized inverse of G from B-inverse, IUseBI=4.
 Internal  Forces:  Max     0.027743824 RMS     0.010624700
 Search for a local minimum.
 Step number   1 out of a maximum of   98
 All quantities printed in internal units (Hartrees-Bohrs-Radians)
 Mixed Optimization -- RFO/linear search
 Second derivative matrix not updated -- first step.
 ITU=  0
     Eigenvalues ---    0.00230   0.00230   0.00230   0.01063   0.01192
     Eigenvalues ---    0.03263   0.03438   0.04196   0.04879   0.05132
     Eigenvalues ---    0.05132   0.05132   0.05132   0.05135   0.05136
     Eigenvalues ---    0.05136   0.05136   0.05136   0.05136   0.05136
     Eigenvalues ---    0.05136   0.05543   0.05903   0.07427   0.08673
     Eigenvalues ---    0.08673   0.08849   0.08849   0.09007   0.11359
     Eigenvalues ---    0.11878   0.21788   0.21825   0.24997   0.24999
     Eigenvalues ---    0.25000   0.25000   0.25000   0.25000   0.26862
     Eigenvalues ---    0.26862   0.34326   0.34327   0.34349   0.34349
     Eigenvalues ---    0.37156   0.37156   0.37157   0.37157   0.37436
     Eigenvalues ---    0.37437   0.38660   0.38663   1.05855   1.41857
     Eigenvalues ---    1.41857   1.42085   1.42088   1.42136   1.42136
 RFO step:  Lambda=-3.29098301D-02 EMin= 2.30000000D-03
 Linear search not attempted -- first point.
 Maximum step size (   0.300) exceeded in Quadratic search.
    -- Step size scaled by   0.662
 Iteration  1 RMS(Cart)=  0.32930331 RMS(Int)=  0.01751740
 Iteration  2 RMS(Cart)=  0.15590704 RMS(Int)=  0.00413376
 Iteration  3 RMS(Cart)=  0.00851223 RMS(Int)=  0.00251053
 Iteration  4 RMS(Cart)=  0.00003556 RMS(Int)=  0.00251052
 Iteration  5 RMS(Cart)=  0.00000049 RMS(Int)=  0.00251052
 Variable       Old X    -DE/DX   Delta X   Delta X   Delta X     New X
                                 (Linear)    (Quad)   (Total)
    R1        2.94696   0.00830   0.00000   0.01824   0.01825   2.96520
    R2        2.75610   0.01887   0.00000   0.03090   0.03090   2.78701
    R3        2.75194   0.01924   0.00000   0.03128   0.03128   2.78322
    R4        2.75612   0.01826   0.00000   0.02990   0.02989   2.78601
    R5        2.06783  -0.00814   0.00000  -0.01434  -0.01434   2.05349
    R6        2.06745  -0.00824   0.00000  -0.01450  -0.01450   2.05296
    R7        2.73412   0.01983   0.00000   0.03132   0.03135   2.76547
    R8        2.15352  -0.02231   0.00000  -0.01016  -0.01016   2.14336
    R9        2.15422  -0.02251   0.00000  -0.01027  -0.01027   2.14395
   R10        2.15364  -0.02309   0.00000  -0.01052  -0.01052   2.14312
   R11        2.26381  -0.02774   0.00000  -0.01684  -0.01689   2.24692
   R12        2.73412   0.01984   0.00000   0.03131   0.03132   2.76544
   R13        2.06782  -0.00814   0.00000  -0.01433  -0.01433   2.05349
   R14        2.06746  -0.00824   0.00000  -0.01450  -0.01450   2.05296
   R15        2.94696   0.00830   0.00000   0.01824   0.01829   2.96525
   R16        2.75610   0.01887   0.00000   0.03090   0.03090   2.78700
   R17        2.75193   0.01924   0.00000   0.03129   0.03129   2.78322
   R18        2.75612   0.01826   0.00000   0.02990   0.02987   2.78599
   R19        2.15352  -0.02231   0.00000  -0.01016  -0.01016   2.14336
   R20        2.15422  -0.02251   0.00000  -0.01027  -0.01027   2.14395
   R21        2.15364  -0.02309   0.00000  -0.01052  -0.01055   2.14310
    A1        1.91067   0.00126   0.00000   0.00660   0.00640   1.91707
    A2        1.92690  -0.00793   0.00000  -0.02521  -0.02521   1.90169
    A3        1.90936   0.00600   0.00000   0.01698   0.01686   1.92622
    A4        1.90383   0.00100   0.00000  -0.00349  -0.00354   1.90029
    A5        1.90485   0.00175   0.00000   0.01750   0.01716   1.92201
    A6        1.90807  -0.00201   0.00000  -0.01200  -0.01195   1.89612
    A7        1.90609  -0.01243   0.00000  -0.03698  -0.04006   1.86603
    A8        1.90822  -0.01052   0.00000  -0.03373  -0.02644   1.88178
    A9        1.89206   0.02284   0.00000   0.06425   0.06577   1.95783
   A10        1.90356   0.00671   0.00000   0.00707   0.00269   1.90626
   A11        1.92287  -0.00167   0.00000   0.00905   0.00794   1.93081
   A12        1.93082  -0.00519   0.00000  -0.01048  -0.01145   1.91938
   A13        3.14384   0.00135   0.00000   0.01064   0.01064   3.15448
   A14        3.10333   0.00018   0.00000   0.00140   0.00140   3.10473
   A15        3.11605  -0.00068   0.00000  -0.00538  -0.00538   3.11066
   A16        3.15739   0.00022   0.00000   0.00172   0.00172   3.15911
   A17        3.11661   0.00419   0.00000   0.03300   0.03301   3.14961
   A18        3.16395   0.00201   0.00000   0.01571   0.01569   3.17965
   A19        3.08429   0.01324   0.00000   0.11651   0.11601   3.20030
   A20        3.20694  -0.00525   0.00000  -0.04747  -0.04865   3.15829
   A21        3.08442   0.01323   0.00000   0.19495   0.19367   3.27809
   A22        3.07616   0.00526   0.00000   0.07677   0.08007   3.15623
   A23        1.92288  -0.00168   0.00000   0.00999   0.00827   1.93115
   A24        1.93082  -0.00519   0.00000  -0.00944  -0.01087   1.91996
   A25        1.89201   0.02285   0.00000   0.06317   0.06516   1.95716
   A26        1.90356   0.00671   0.00000   0.00963   0.00375   1.90731
   A27        1.90611  -0.01243   0.00000  -0.03899  -0.04230   1.86381
   A28        1.90825  -0.01053   0.00000  -0.03528  -0.02557   1.88268
   A29        1.91063   0.00128   0.00000   0.00664   0.00638   1.91701
   A30        1.92696  -0.00795   0.00000  -0.02523  -0.02524   1.90171
   A31        1.90932   0.00600   0.00000   0.01697   0.01704   1.92635
   A32        1.90380   0.00100   0.00000  -0.00348  -0.00353   1.90027
   A33        1.90495   0.00174   0.00000   0.01745   0.01702   1.92197
   A34        1.90802  -0.00200   0.00000  -0.01196  -0.01194   1.89608
   A35        3.14372   0.00137   0.00000   0.01076   0.01076   3.15448
   A36        3.10325   0.00018   0.00000   0.00144   0.00144   3.10469
   A37        3.11620  -0.00070   0.00000  -0.00548  -0.00548   3.11072
   A38        3.15739   0.00022   0.00000   0.00172   0.00172   3.15910
   A39        3.11648   0.00420   0.00000   0.03306   0.03311   3.14959
   A40        3.16389   0.00202   0.00000   0.01578   0.01563   3.17952
    D1       -3.09572   0.00538   0.00000   0.01793   0.01691  -3.07881
    D2       -1.01416  -0.00016   0.00000  -0.01567  -0.01679  -1.03095
    D3        1.09211   0.00110   0.00000  -0.00959  -0.00724   1.08487
    D4       -0.99962   0.00247   0.00000   0.00207   0.00101  -0.99861
    D5        1.08195  -0.00307   0.00000  -0.03153  -0.03269   1.04926
    D6       -3.09497  -0.00181   0.00000  -0.02545  -0.02314  -3.11811
    D7        1.10089  -0.00115   0.00000  -0.01773  -0.01892   1.08198
    D8       -3.10073  -0.00670   0.00000  -0.05133  -0.05262   3.12984
    D9       -0.99446  -0.00544   0.00000  -0.04525  -0.04307  -1.03753
   D10       -1.36937  -0.00299   0.00000  -0.05070  -0.04671  -1.41608
   D11        2.75734   0.00347   0.00000   0.05974   0.05843   2.81578
   D12        0.68481   0.00136   0.00000   0.02787   0.03669   0.72150
   D13        2.85969  -0.00735   0.00000  -0.12157  -0.12163   2.73805
   D14        0.70321  -0.00089   0.00000  -0.01113  -0.01649   0.68672
   D15       -1.36932  -0.00300   0.00000  -0.04300  -0.03823  -1.40755
   D16        0.70323  -0.00089   0.00000  -0.02424  -0.02789   0.67533
   D17       -1.45325   0.00558   0.00000   0.08620   0.07725  -1.37600
   D18        2.75740   0.00347   0.00000   0.05433   0.05551   2.81291
   D19        1.09184   0.00110   0.00000  -0.00942  -0.00637   1.08547
   D20       -3.09526  -0.00181   0.00000  -0.02526  -0.02230  -3.11756
   D21       -0.99480  -0.00543   0.00000  -0.04504  -0.04213  -1.03693
   D22       -3.09599   0.00538   0.00000   0.01742   0.01633  -3.07966
   D23       -0.99991   0.00247   0.00000   0.00157   0.00041  -0.99950
   D24        1.10055  -0.00115   0.00000  -0.01820  -0.01943   1.08112
   D25       -1.01440  -0.00017   0.00000  -0.01520  -0.01685  -1.03126
   D26        1.08168  -0.00307   0.00000  -0.03104  -0.03278   1.04890
   D27       -3.10104  -0.00670   0.00000  -0.05081  -0.05262   3.12952
         Item               Value     Threshold  Converged?
 Maximum Force            0.027744     0.000450     NO 
 RMS     Force            0.010625     0.000300     NO 
 Maximum Displacement     1.670713     0.001800     NO 
 RMS     Displacement     0.474177     0.001200     NO 
 Predicted change in Energy=-1.671630D-02
 GradGradGradGradGradGradGradGradGradGradGradGradGradGradGradGradGradGrad

                          Input orientation:                          
 ---------------------------------------------------------------------
 Center     Atomic      Atomic             Coordinates (Angstroms)
 Number     Number       Type             X           Y           Z
 ---------------------------------------------------------------------
      1          6           0       -2.803171    0.077545    0.106645
      2          6           0       -2.015309    0.418049    1.420214
      3          1           0       -2.181792    1.472273    1.624481
      4          1           0       -2.440588   -0.173850    2.225826
      5          6           0       -2.691534   -1.363922   -0.184577
      6          6           0       -4.223528    0.416228    0.299170
      7          6           0       -2.279970    0.865485   -1.024260
      8          7           0       -1.895209    1.506885   -1.876740
      9          7           0       -2.623102   -2.480991   -0.368745
     10          7           0       -5.309434    0.688131    0.483640
     11          6           0       -0.584635    0.136870    1.294815
     12          6           0        0.573155   -0.130677    1.253438
     13          6           0        2.001297   -0.415395    1.398010
     14          1           0        2.162900   -1.470319    1.602578
     15          1           0        2.417763    0.175211    2.209157
     16          6           0        2.806442   -0.078040    0.094117
     17          6           0        2.702524    1.363546   -0.199348
     18          6           0        4.223335   -0.420577    0.304532
     19          6           0        2.295252   -0.865177   -1.042812
     20          7           0        5.306104   -0.695395    0.502618
     21          7           0        1.919722   -1.505721   -1.900023
     22          7           0        2.640000    2.480686   -0.385179
 ---------------------------------------------------------------------
                    Distance matrix (angstroms):
                    1          2          3          4          5
     1  C    0.000000
     2  C    1.569118   0.000000
     3  H    2.152952   1.086660   0.000000
     4  H    2.164624   1.086378   1.771528   0.000000
     5  C    1.474821   2.491596   3.402429   2.699868   0.000000
     6  C    1.472816   2.476484   2.653369   2.690552   2.397905
     7  C    1.474292   2.499139   2.719128   3.416003   2.417583
     8  N    2.607916   3.474175   3.513101   4.466918   3.426234
     9  N    2.608548   3.460378   4.449269   3.476781   1.134215
    10  N    2.606971   3.435313   3.420313   3.465329   3.392762
    11  C    2.517373   1.463425   2.107816   2.099497   2.979933
    12  C    3.571843   2.651237   3.208871   3.167025   3.774516
    13  C    4.999352   4.102224   4.594868   4.524816   5.042514
    14  H    5.412537   4.588749   5.247445   4.823004   5.174048
    15  H    5.629232   4.509272   4.814575   4.870903   5.848403
    16  C    5.611784   5.025328   5.443158   5.664335   5.653221
    17  C    5.662164   5.076898   5.214856   5.890387   6.044432
    18  C    7.046919   6.392865   6.808142   6.939749   6.996038
    19  C    5.310734   5.127777   5.711571   5.795697   5.084619
    20  N    8.155647   7.462227   7.875656   7.953157   8.054898
    21  N    5.370210   5.496301   6.173572   6.148887   4.922046
    22  N    5.970350   5.402389   5.320273   6.298911   6.576207
                    6          7          8          9         10
     6  C    0.000000
     7  C    2.393892   0.000000
     8  N    3.368262   1.134088   0.000000
     9  N    3.376589   3.427294   4.325163   0.000000
    10  N    1.134527   3.388639   4.230684   4.241023   0.000000
    11  C    3.782974   2.963638   3.695039   3.711600   4.825518
    12  C    4.921168   3.784252   4.309576   4.286199   5.988980
    13  C    6.375539   5.083040   5.440764   5.364063   7.449875
    14  H    6.785602   5.665276   6.118631   5.273839   7.857907
    15  H    6.914687   5.744577   6.088485   6.253903   7.934109
    16  C    7.050307   5.292693   5.338707   5.955532   8.161262
    17  C    7.008290   5.074819   4.896258   6.570498   8.069333
    18  C    8.488214   6.761111   6.775666   7.181386   9.598698
    19  C    6.777715   4.891645   4.886930   5.220673   7.910378
    20  N    9.596405   7.894063   7.897487   8.174346  10.705334
    21  N    6.802195   4.901733   4.861074   4.892158   7.921839
    22  N    7.199884   5.217605   4.872490   7.233169   8.195218
                   11         12         13         14         15
    11  C    0.000000
    12  C    1.189021   0.000000
    13  C    2.646260   1.463406   0.000000
    14  H    3.197925   2.108039   1.086659   0.000000
    15  H    3.138772   2.099893   1.086379   1.772191   0.000000
    16  C    3.603786   2.516817   1.569142   2.151288   2.165318
    17  C    3.813486   2.979514   2.491567   3.401312   2.700764
    18  C    4.940444   3.782629   2.476525   2.651844   2.691217
    19  C    3.842181   2.962747   2.499265   2.716947   3.416536
    20  N    6.001754   4.825293   3.435387   3.419087   3.465941
    21  N    4.379144   3.694361   3.474549   3.511211   4.467543
    22  N    4.325982   3.711620   3.460490   4.448510   3.477813
                   16         17         18         19         20
    16  C    0.000000
    17  C    1.474819   0.000000
    18  C    1.472818   2.397886   0.000000
    19  C    1.474281   2.417541   2.393848   0.000000
    20  N    2.606974   3.392731   1.134527   3.388570   0.000000
    21  N    2.607899   3.426043   3.368121   1.134078   4.230473
    22  N    2.608545   1.134215   3.376385   3.427262   4.240730
                   21         22
    21  N    0.000000
    22  N    4.324927   0.000000
 Stoichiometry    C12H4N6
 Framework group  C1[X(C12H4N6)]
 Deg. of freedom    60
 Full point group                 C1      NOp   1
 Largest Abelian subgroup         C1      NOp   1
 Largest concise Abelian subgroup C1      NOp   1
                         Standard orientation:                         
 ---------------------------------------------------------------------
 Center     Atomic      Atomic             Coordinates (Angstroms)
 Number     Number       Type             X           Y           Z
 ---------------------------------------------------------------------
      1          6           0        2.806417   -0.015376    0.057635
      2          6           0        2.028743   -0.371190    1.373215
      3          1           0        2.218943   -1.421140    1.578788
      4          1           0        2.442287    0.231264    2.177110
      5          6           0        2.662301    1.422799   -0.235592
      6          6           0        4.234292   -0.322177    0.247992
      7          6           0        2.298718   -0.816509   -1.071065
      8          7           0        1.926693   -1.467628   -1.921827
      9          7           0        2.568771    2.537784   -0.421347
     10          7           0        5.326301   -0.569643    0.430824
     11          6           0        0.591955   -0.122002    1.250092
     12          6           0       -0.571558    0.119741    1.210495
     13          6           0       -2.005393    0.372951    1.357332
     14          1           0       -2.189970    1.424353    1.560583
     15          1           0       -2.407151   -0.225463    2.170173
     16          6           0       -2.805280    0.015767    0.055485
     17          6           0       -2.669964   -1.423622   -0.235959
     18          6           0       -4.229027    0.327134    0.268055
     19          6           0       -2.313785    0.812248   -1.083618
     20          7           0       -5.317255    0.578188    0.467766
     21          7           0       -1.954145    1.459607   -1.942522
     22          7           0       -2.583026   -2.539393   -0.420189
 ---------------------------------------------------------------------
 Rotational constants (GHZ):           0.8929191           0.2132196           0.2059855
 Standard basis: GTBas1 (6D, 7F)
 There are   278 symmetry adapted cartesian basis functions of A   symmetry.
 There are   278 symmetry adapted basis functions of A   symmetry.
   278 basis functions,   520 primitive gaussians,   278 cartesian basis functions
    59 alpha electrons       59 beta electrons
       nuclear repulsion energy      1020.5694533310 Hartrees.
 NAtoms=   22 NActive=   22 NUniq=   22 SFac= 1.00D+00 NAtFMM=   60 NAOKFM=F Big=F
 Integral buffers will be    131072 words long.
 Raffenetti 1 integral format.
 Two-electron integral symmetry is turned on.
 One-electron integrals computed using PRISM.
 NBasis=   278 RedAO= T EigKep=  1.42D-04  NBF=   278
 NBsUse=   278 1.00D-06 EigRej= -1.00D+00 NBFU=   278
 Initial guess from the checkpoint file:  "/home/artemiy/opt/gaussian/scr/Gau-109849.chk"
 B after Tr=    -0.000000   -0.000000   -0.000000
         Rot=    0.999974    0.000570   -0.000935   -0.007117 Ang=   0.83 deg.
 ExpMin= 1.61D-01 ExpMax= 4.17D+03 ExpMxC= 6.27D+02 IAcc=2 IRadAn=         4 AccDes= 0.00D+00
 Harris functional with IExCor=  205 and IRadAn=       4 diagonalized for initial guess.
 HarFok:  IExCor=  205 AccDes= 0.00D+00 IRadAn=         4 IDoV= 1 UseB2=F ITyADJ=14
 ICtDFT=  3500011 ScaDFX=  1.000000  1.000000  1.000000  1.000000
 FoFCou: FMM=F IPFlag=           0 FMFlag=      100000 FMFlg1=           0
         NFxFlg=           0 DoJE=T BraDBF=F KetDBF=T FulRan=T
         wScrn=  0.000000 ICntrl=       500 IOpCl=  0 I1Cent=   200000004 NGrid=           0
         NMat0=    1 NMatS0=      1 NMatT0=    0 NMatD0=    1 NMtDS0=    0 NMtDT0=    0
 Petite list used in FoFCou.
 Keep R1 ints in memory in canonical form, NReq=762862702.
 Requested convergence on RMS density matrix=1.00D-08 within 128 cycles.
 Requested convergence on MAX density matrix=1.00D-06.
 Requested convergence on             energy=1.00D-06.
 No special actions if energy rises.
 SCF Done:  E(RHF) =  -783.274405991     A.U. after   16 cycles
            NFock= 16  Conv=0.24D-08     -V/T= 2.0016
 Calling FoFJK, ICntrl=      2127 FMM=F ISym2X=0 I1Cent= 0 IOpClX= 0 NMat=1 NMatS=1 NMatT=0.
 ***** Axes restored to original set *****
 -------------------------------------------------------------------
 Center     Atomic                   Forces (Hartrees/Bohr)
 Number     Number              X              Y              Z
 -------------------------------------------------------------------
      1        6           0.005540735   -0.000976623    0.004304292
      2        6          -0.004148546    0.003431510   -0.004770317
      3        1           0.000792442   -0.003321005    0.001474447
      4        1           0.000844520    0.002738163   -0.001854958
      5        6          -0.000567497   -0.010788580   -0.002664793
      6        6          -0.012453254    0.002916841    0.003085685
      7        6           0.002678462    0.006237475   -0.008354959
      8        7          -0.001120958   -0.003741030    0.004497258
      9        7           0.000348480    0.006112475    0.001043044
     10        7           0.006415881   -0.001504340   -0.000900182
     11        6           0.010309342   -0.005088944    0.001341603
     12        6          -0.011169670    0.005199409    0.009495638
     13        6           0.005005964   -0.003685567   -0.007484560
     14        1          -0.001027411    0.003295570    0.001594293
     15        1          -0.001173793   -0.002628083   -0.001970649
     16        6          -0.005099935    0.001002393    0.004468802
     17        6           0.000698504    0.010755148   -0.002700654
     18        6           0.012482947   -0.002905046    0.003113303
     19        6          -0.002539900   -0.006160967   -0.008292346
     20        7          -0.006381381    0.001508809   -0.000956294
     21        7           0.000988776    0.003675682    0.004473740
     22        7          -0.000423707   -0.006073292    0.001057607
 -------------------------------------------------------------------
 Cartesian Forces:  Max     0.012482947 RMS     0.005119631

 GradGradGradGradGradGradGradGradGradGradGradGradGradGradGradGradGradGrad
 Berny optimization.
 Using GEDIIS/GDIIS optimizer.
 FormGI is forming the generalized inverse of G from B-inverse, IUseBI=4.
 Internal  Forces:  Max     0.013482912 RMS     0.003240449
 Search for a local minimum.
 Step number   2 out of a maximum of   98
 All quantities printed in internal units (Hartrees-Bohrs-Radians)
 Mixed Optimization -- RFO/linear search
 Update second derivatives using D2CorX and points    1    2
 DE= -6.96D-03 DEPred=-1.67D-02 R= 4.16D-01
 Trust test= 4.16D-01 RLast= 3.70D-01 DXMaxT set to 3.00D-01
 ITU=  0  0
 Use linear search instead of GDIIS.
     Eigenvalues ---    0.00230   0.00230   0.00235   0.01082   0.01959
     Eigenvalues ---    0.02934   0.03652   0.04058   0.04782   0.05127
     Eigenvalues ---    0.05132   0.05132   0.05132   0.05133   0.05135
     Eigenvalues ---    0.05136   0.05136   0.05136   0.05136   0.05136
     Eigenvalues ---    0.05227   0.05369   0.05865   0.08612   0.08809
     Eigenvalues ---    0.08880   0.08926   0.08930   0.10998   0.13378
     Eigenvalues ---    0.13591   0.22097   0.23562   0.24778   0.24991
     Eigenvalues ---    0.25000   0.25000   0.25000   0.25380   0.26862
     Eigenvalues ---    0.27583   0.32728   0.34326   0.34337   0.34349
     Eigenvalues ---    0.35362   0.37156   0.37157   0.37157   0.37346
     Eigenvalues ---    0.37436   0.38657   0.39107   1.03930   1.36553
     Eigenvalues ---    1.41857   1.41954   1.42086   1.42115   1.42136
 RFO step:  Lambda=-1.10240382D-02 EMin= 2.29963597D-03
 Quartic linear search produced a step of -0.19069.
 Maximum step size (   0.300) exceeded in Quadratic search.
    -- Step size scaled by   0.672
 Iteration  1 RMS(Cart)=  0.15397342 RMS(Int)=  0.01188735
 Iteration  2 RMS(Cart)=  0.07997908 RMS(Int)=  0.00153189
 Iteration  3 RMS(Cart)=  0.00226013 RMS(Int)=  0.00127597
 Iteration  4 RMS(Cart)=  0.00000523 RMS(Int)=  0.00127597
 Iteration  5 RMS(Cart)=  0.00000004 RMS(Int)=  0.00127597
 Variable       Old X    -DE/DX   Delta X   Delta X   Delta X     New X
                                 (Linear)    (Quad)   (Total)
    R1        2.96520  -0.00091  -0.00348   0.01168   0.00820   2.97340
    R2        2.78701   0.00487  -0.00589   0.03057   0.02468   2.81169
    R3        2.78322   0.00643  -0.00597   0.03311   0.02714   2.81036
    R4        2.78601   0.00485  -0.00570   0.02978   0.02408   2.81009
    R5        2.05349  -0.00307   0.00273  -0.01570  -0.01296   2.04053
    R6        2.05296  -0.00320   0.00276  -0.01603  -0.01327   2.03969
    R7        2.76547   0.00149  -0.00598   0.02586   0.01989   2.78536
    R8        2.14336  -0.00617   0.00194  -0.01042  -0.00848   2.13488
    R9        2.14395  -0.00665   0.00196  -0.01070  -0.00874   2.13521
   R10        2.14312  -0.00587   0.00201  -0.01058  -0.00857   2.13454
   R11        2.24692  -0.00940   0.00322  -0.01817  -0.01495   2.23197
   R12        2.76544   0.00205  -0.00597   0.02662   0.02065   2.78608
   R13        2.05349  -0.00305   0.00273  -0.01567  -0.01294   2.04055
   R14        2.05296  -0.00335   0.00276  -0.01627  -0.01351   2.03945
   R15        2.96525  -0.00074  -0.00349   0.01204   0.00850   2.97375
   R16        2.78700   0.00488  -0.00589   0.03059   0.02469   2.81170
   R17        2.78322   0.00650  -0.00597   0.03322   0.02725   2.81047
   R18        2.78599   0.00482  -0.00570   0.02971   0.02405   2.81003
   R19        2.14336  -0.00613   0.00194  -0.01040  -0.00846   2.13489
   R20        2.14395  -0.00662   0.00196  -0.01069  -0.00873   2.13522
   R21        2.14310  -0.00578   0.00201  -0.01056  -0.00852   2.13458
    A1        1.91707   0.00144  -0.00122   0.00706   0.00582   1.92289
    A2        1.90169  -0.00288   0.00481  -0.02393  -0.01911   1.88258
    A3        1.92622   0.00000  -0.00322   0.01211   0.00888   1.93510
    A4        1.90029   0.00057   0.00067  -0.00094  -0.00026   1.90003
    A5        1.92201  -0.00068  -0.00327   0.00911   0.00580   1.92780
    A6        1.89612   0.00153   0.00228  -0.00410  -0.00181   1.89430
    A7        1.86603   0.00367   0.00764  -0.01699  -0.00840   1.85763
    A8        1.88178  -0.00052   0.00504  -0.02255  -0.01665   1.86513
    A9        1.95783   0.00206  -0.01254   0.05216   0.04022   1.99805
   A10        1.90626  -0.00241  -0.00051  -0.00464  -0.00632   1.89994
   A11        1.93081  -0.00176  -0.00152   0.00246   0.00001   1.93082
   A12        1.91938  -0.00102   0.00218  -0.01204  -0.01046   1.90892
   A13        3.15448  -0.00155  -0.00203  -0.00822  -0.01025   3.14423
   A14        3.10473   0.00003  -0.00027   0.00109   0.00082   3.10555
   A15        3.11066  -0.00042   0.00103  -0.00682  -0.00579   3.10487
   A16        3.15911   0.00009  -0.00033   0.00180   0.00148   3.16059
   A17        3.14961  -0.00179  -0.00629   0.00188  -0.00441   3.14520
   A18        3.17965  -0.00102  -0.00299  -0.00062  -0.00361   3.17604
   A19        3.20030  -0.00835  -0.02212  -0.02292  -0.04303   3.15727
   A20        3.15829   0.00037   0.00928  -0.02314  -0.01267   3.14562
   A21        3.27809  -0.01348  -0.03693  -0.26079  -0.29715   2.98093
   A22        3.15623  -0.00223  -0.01527  -0.03798  -0.04948   3.10675
   A23        1.93115  -0.00227  -0.00158   0.00299  -0.00053   1.93063
   A24        1.91996  -0.00168   0.00207  -0.01594  -0.01574   1.90421
   A25        1.95716   0.00325  -0.01243   0.05526   0.04460   2.00176
   A26        1.90731  -0.00246  -0.00072  -0.00595  -0.00938   1.89793
   A27        1.86381   0.00403   0.00807  -0.01356  -0.00717   1.85664
   A28        1.88268  -0.00082   0.00488  -0.02427  -0.01339   1.86930
   A29        1.91701   0.00143  -0.00122   0.00702   0.00585   1.92286
   A30        1.90171  -0.00262   0.00481  -0.02326  -0.01843   1.88329
   A31        1.92635  -0.00024  -0.00325   0.01158   0.00808   1.93444
   A32        1.90027   0.00049   0.00067  -0.00096  -0.00028   1.89999
   A33        1.92197  -0.00061  -0.00325   0.00898   0.00582   1.92779
   A34        1.89608   0.00154   0.00228  -0.00403  -0.00171   1.89436
   A35        3.15448  -0.00164  -0.00205  -0.00897  -0.01102   3.14346
   A36        3.10469   0.00001  -0.00027   0.00092   0.00065   3.10533
   A37        3.11072  -0.00047   0.00104  -0.00726  -0.00622   3.10451
   A38        3.15910   0.00011  -0.00033   0.00194   0.00161   3.16072
   A39        3.14959  -0.00191  -0.00631   0.00082  -0.00554   3.14405
   A40        3.17952  -0.00100  -0.00298  -0.00041  -0.00321   3.17630
    D1       -3.07881   0.00094  -0.00323   0.03281   0.02990  -3.04892
    D2       -1.03095  -0.00023   0.00320   0.00711   0.01017  -1.02078
    D3        1.08487  -0.00056   0.00138   0.00945   0.01069   1.09556
    D4       -0.99861   0.00074  -0.00019   0.02139   0.02150  -0.97711
    D5        1.04926  -0.00043   0.00623  -0.00431   0.00177   1.05103
    D6       -3.11811  -0.00076   0.00441  -0.00197   0.00229  -3.11582
    D7        1.08198   0.00084   0.00361   0.00888   0.01277   1.09475
    D8        3.12984  -0.00033   0.01003  -0.01682  -0.00696   3.12288
    D9       -1.03753  -0.00067   0.00821  -0.01448  -0.00643  -1.04396
   D10       -1.41608   0.00049   0.00891   0.04977   0.05878  -1.35730
   D11        2.81578  -0.00029  -0.01114  -0.02251  -0.03669   2.77908
   D12        0.72150  -0.00060  -0.00700  -0.03163  -0.03602   0.68548
   D13        2.73805   0.00133   0.02319   0.08627   0.11040   2.84845
   D14        0.68672   0.00056   0.00314   0.01398   0.01493   0.70165
   D15       -1.40755   0.00025   0.00729   0.00487   0.01560  -1.39196
   D16        0.67533   0.00057   0.00532   0.04256   0.04748   0.72281
   D17       -1.37600  -0.00020  -0.01473  -0.02972  -0.04799  -1.42399
   D18        2.81291  -0.00051  -0.01059  -0.03883  -0.04732   2.76559
   D19        1.08547  -0.00081   0.00121   0.00630   0.00890   1.09437
   D20       -3.11756  -0.00095   0.00425  -0.00476   0.00091  -3.11665
   D21       -1.03693  -0.00082   0.00803  -0.01710  -0.00774  -1.04467
   D22       -3.07966   0.00100  -0.00311   0.03426   0.03098  -3.04868
   D23       -0.99950   0.00087  -0.00008   0.02320   0.02298  -0.97652
   D24        1.08112   0.00099   0.00370   0.01086   0.01434   1.09546
   D25       -1.03126  -0.00019   0.00321   0.00799   0.00992  -1.02134
   D26        1.04890  -0.00033   0.00625  -0.00308   0.00192   1.05082
   D27        3.12952  -0.00020   0.01003  -0.01541  -0.00672   3.12280
         Item               Value     Threshold  Converged?
 Maximum Force            0.013483     0.000450     NO 
 RMS     Force            0.003240     0.000300     NO 
 Maximum Displacement     0.872785     0.001800     NO 
 RMS     Displacement     0.228728     0.001200     NO 
 Predicted change in Energy=-4.608297D-03
 GradGradGradGradGradGradGradGradGradGradGradGradGradGradGradGradGradGrad

                          Input orientation:                          
 ---------------------------------------------------------------------
 Center     Atomic      Atomic             Coordinates (Angstroms)
 Number     Number       Type             X           Y           Z
 ---------------------------------------------------------------------
      1          6           0       -2.660535    0.039251    0.063913
      2          6           0       -2.004880    0.419456    1.442799
      3          1           0       -2.198312    1.471059    1.593412
      4          1           0       -2.525250   -0.143339    2.202728
      5          6           0       -2.554173   -1.426591   -0.168004
      6          6           0       -4.098610    0.413473    0.123952
      7          6           0       -2.023015    0.789334   -1.050635
      8          7           0       -1.550682    1.392122   -1.880957
      9          7           0       -2.477631   -2.545498   -0.303933
     10          7           0       -5.184623    0.712749    0.211633
     11          6           0       -0.560403    0.139462    1.530105
     12          6           0        0.594140   -0.094215    1.616394
     13          6           0        2.028471   -0.408427    1.483665
     14          1           0        2.201145   -1.464694    1.626783
     15          1           0        2.580540    0.137875    2.233004
     16          6           0        2.655403   -0.041473    0.087725
     17          6           0        2.578235    1.426963   -0.139317
     18          6           0        4.085149   -0.450545    0.106882
     19          6           0        1.968790   -0.773711   -1.009350
     20          7           0        5.165537   -0.776409    0.164028
     21          7           0        1.457864   -1.363604   -1.825994
     22          7           0        2.523062    2.547608   -0.271277
 ---------------------------------------------------------------------
                    Distance matrix (angstroms):
                    1          2          3          4          5
     1  C    0.000000
     2  C    1.573457   0.000000
     3  H    2.145482   1.079801   0.000000
     4  H    2.150853   1.079358   1.756257   0.000000
     5  C    1.487881   2.510836   3.409634   2.695912   0.000000
     6  C    1.487180   2.474489   2.624677   2.665860   2.419991
     7  C    1.487035   2.520784   2.736140   3.421474   2.443663
     8  N    2.616210   3.492811   3.535095   4.470336   3.447658
     9  N    2.617191   3.473545   4.450917   3.472172   1.129729
    10  N    2.616571   3.422361   3.376744   3.430687   3.411769
    11  C    2.563262   1.473951   2.111849   2.095953   3.051428
    12  C    3.608451   2.654976   3.201313   3.174397   3.856317
    13  C    4.919643   4.117643   4.627117   4.617759   4.976474
    14  H    5.323565   4.612431   5.289138   4.941306   5.082889
    15  H    5.673055   4.661522   5.002388   5.113618   5.880279
    16  C    5.316604   4.875133   5.302207   5.596676   5.396632
    17  C    5.423261   4.952081   5.081309   5.830659   5.872411
    18  C    6.763578   6.295238   6.736781   6.941492   6.716310
    19  C    4.821146   4.819413   5.401676   5.559785   4.646645
    20  N    7.869099   7.381072   7.830743   7.981559   7.754154
    21  N    4.743517   5.084772   5.752849   5.795243   4.341583
    22  N    5.768352   5.288605   5.189161   6.232764   6.448507
                    6          7          8          9         10
     6  C    0.000000
     7  C    2.414336   0.000000
     8  N    3.386642   1.129552   0.000000
     9  N    3.400907   3.447512   4.341784   0.000000
    10  N    1.129903   3.405136   4.248059   4.267293   0.000000
    11  C    3.817231   3.036739   3.766318   3.774713   4.842565
    12  C    4.950458   3.839688   4.363591   4.374039   6.001554
    13  C    6.329728   4.926646   5.231921   5.297879   7.409712
    14  H    6.743361   5.485684   5.877231   5.175591   7.829015
    15  H    7.009643   5.692047   5.963624   6.262717   8.044512
    16  C    6.769414   4.886071   4.860252   5.724646   7.877196
    17  C    6.758456   4.733769   4.481348   6.431899   7.803540
    18  C    8.229260   6.339306   6.253760   6.901280   9.343067
    19  C    6.285469   4.287110   4.223412   4.838129   7.407542
    20  N    9.340334   7.456690   7.347931   7.859178  10.456848
    21  N    6.150991   4.165673   4.080244   4.381970   7.251607
    22  N    6.968304   4.936166   4.530078   7.137767   7.937777
                   11         12         13         14         15
    11  C    0.000000
    12  C    1.181110   0.000000
    13  C    2.646622   1.474331   0.000000
    14  H    3.195123   2.112057   1.079813   0.000000
    15  H    3.218632   2.092811   1.079230   1.754899   0.000000
    16  C    3.529109   2.566791   1.573642   2.144903   2.154065
    17  C    3.780963   3.055019   2.510970   3.409250   2.699937
    18  C    4.894367   3.820045   2.475324   2.624513   2.670297
    19  C    3.698586   3.040709   2.520341   2.735077   3.423170
    20  N    5.957464   4.844835   3.423162   3.376538   3.434937
    21  N    4.194760   3.769271   3.491675   3.533321   4.471053
    22  N    4.307192   3.776674   3.473123   4.450261   3.475851
                   16         17         18         19         20
    16  C    0.000000
    17  C    1.487886   0.000000
    18  C    1.487239   2.420007   0.000000
    19  C    1.487005   2.443634   2.414412   0.000000
    20  N    2.616625   3.411890   1.129908   3.405292   0.000000
    21  N    2.616190   3.447807   3.387080   1.129569   4.248744
    22  N    2.617200   1.129736   3.401770   3.447192   4.268636
                   21         22
    21  N    0.000000
    22  N    4.341586   0.000000
 Stoichiometry    C12H4N6
 Framework group  C1[X(C12H4N6)]
 Deg. of freedom    60
 Full point group                 C1      NOp   1
 Largest Abelian subgroup         C1      NOp   1
 Largest concise Abelian subgroup C1      NOp   1
                         Standard orientation:                         
 ---------------------------------------------------------------------
 Center     Atomic      Atomic             Coordinates (Angstroms)
 Number     Number       Type             X           Y           Z
 ---------------------------------------------------------------------
      1          6           0        2.657664   -0.014726    0.033229
      2          6           0        2.000220   -0.407731    1.407667
      3          1           0        2.202929   -1.458193    1.553989
      4          1           0        2.512304    0.156230    2.172344
      5          6           0        2.538448    1.451161   -0.192061
      6          6           0        4.098944   -0.375739    0.097159
      7          6           0        2.031582   -0.765346   -1.087424
      8          7           0        1.568183   -1.368507   -1.922496
      9          7           0        2.451933    2.569945   -0.322914
     10          7           0        5.187369   -0.665244    0.187699
     11          6           0        0.552847   -0.141715    1.490600
     12          6           0       -0.604169    0.080710    1.573442
     13          6           0       -2.040858    0.382104    1.436549
     14          1           0       -2.224003    1.436000    1.584056
     15          1           0       -2.590699   -0.172971    2.181064
     16          6           0       -2.658850    0.016052    0.036391
     17          6           0       -2.567007   -1.450479   -0.197396
     18          6           0       -4.092439    0.411608    0.051856
     19          6           0       -1.974858    0.759997   -1.054427
     20          7           0       -5.176055    0.727051    0.106291
     21          7           0       -1.466303    1.358600   -1.866199
     22          7           0       -2.500795   -2.569906   -0.334519
 ---------------------------------------------------------------------
 Rotational constants (GHZ):           0.8725796           0.2303194           0.2226910
 Standard basis: GTBas1 (6D, 7F)
 There are   278 symmetry adapted cartesian basis functions of A   symmetry.
 There are   278 symmetry adapted basis functions of A   symmetry.
   278 basis functions,   520 primitive gaussians,   278 cartesian basis functions
    59 alpha electrons       59 beta electrons
       nuclear repulsion energy      1031.6459413673 Hartrees.
 NAtoms=   22 NActive=   22 NUniq=   22 SFac= 1.00D+00 NAtFMM=   60 NAOKFM=F Big=F
 Integral buffers will be    131072 words long.
 Raffenetti 1 integral format.
 Two-electron integral symmetry is turned on.
 One-electron integrals computed using PRISM.
 NBasis=   278 RedAO= T EigKep=  1.56D-04  NBF=   278
 NBsUse=   278 1.00D-06 EigRej= -1.00D+00 NBFU=   278
 Initial guess from the checkpoint file:  "/home/artemiy/opt/gaussian/scr/Gau-109849.chk"
 B after Tr=     0.000000    0.000000   -0.000000
         Rot=    0.999972   -0.002294    0.003024    0.006384 Ang=  -0.85 deg.
 ExpMin= 1.61D-01 ExpMax= 4.17D+03 ExpMxC= 6.27D+02 IAcc=2 IRadAn=         4 AccDes= 0.00D+00
[...]
 00024223,0.00048401,0.00046320,0.00038909,-0.00000205,0.00036724,-0.00
 026280,-0.00048170,-0.00065895,0.00027811,0.00032788,-0.00064741,0.000
 26516,-0.00033481,0.00000969,0.00005538,-0.00000118,0.47545266,-0.2665
 5636,0.00561790,-0.58937200,0.39069110,-0.00000196,0.00006125,-0.00002
 002,-0.00008483,0.00002177,0.00600050,0.00175459,-0.00029197,0.0002543
 7,-0.00176348,0.00027712,0.00021196,0.00002494,0.00015277,-0.00029328,
 -0.00000811,-0.00000698,0.00012437,-0.00003917,-0.00015320,-0.00026946
 ,-0.00025059,0.00006771,0.00022616,0.00027368,-0.00007085,0.00024407,-
 0.00000073,-0.00000115,-0.00001932,-0.01214884,0.00561578,-0.04562988,
 0.01512334,-0.00704954,0.11116594,0.00048181,-0.00075650,0.00001134,-0
 .00014313,0.00245686,-0.00006679,0.00024483,0.00013428,-0.00013029,0.0
 0024930,0.00013568,0.00012887,-0.00018972,-0.00005796,0.00013484,0.000
 16637,0.00047128,-0.00000616,-0.00018870,-0.00006268,-0.00013470,0.000
 16781,0.00006742,0.00010539,0.00016964,0.00006367,-0.00010561,0.000223
 62,-0.00020192,0.00000423,0.00179351,0.00403662,-0.00008283,-0.2743713
 3,0.09192278,-0.00231241,0.54538457,0.00073039,-0.00046637,0.00002199,
 0.00245584,0.00500741,0.00003146,-0.00037158,0.00022823,0.00019390,-0.
 00039025,0.00023205,-0.00020809,0.00002338,-0.00000053,-0.00007363,0.0
 0011553,0.00015931,-0.00000486,0.00002330,0.00000347,0.00007440,0.0000
 6320,-0.00004626,-0.00002609,0.00005945,-0.00004386,0.00002661,-0.0000
 0053,-0.00004779,0.00000091,0.00362812,0.00556757,0.00002284,0.0890950
 9,-0.12370168,0.00107604,-0.08111976,0.57080650,-0.00001115,0.00001476
 ,0.00064441,-0.00006886,0.00003585,0.00642945,0.00070536,-0.00033829,-
 0.00010957,-0.00069140,0.00032816,-0.00011881,-0.00002370,-0.00004611,
 0.00002130,-0.00000022,-0.00000289,-0.00016333,0.00002123,0.00004599,0
 .00001611,0.00010166,-0.00004501,-0.00004321,-0.00010198,0.00004546,-0
 .00004749,0.00000095,-0.00000011,0.00000661,-0.00007683,0.00002291,0.0
 0599935,-0.00226262,0.00108569,-0.08065012,0.00082501,0.00153686,0.681
 82854,-0.00017921,0.00037334,-0.00008633,0.00024971,-0.00039278,-0.000
 68979,-0.00031213,0.00002538,-0.00001263,-0.00021893,-0.00011275,-0.00
 005415,0.00004692,0.00003575,-0.00004236,-0.00005683,-0.00013482,0.000
 02213,0.00001757,0.00006765,0.00010571,0.00007879,-0.00008531,-0.00007
 554,-0.00002448,-0.00006051,0.00002096,-0.00005014,0.00003442,-0.00000
 704,-0.00161270,-0.00023860,-0.00176289,-0.00812215,0.02387915,0.03013
 479,-0.06260965,0.02374300,0.03269369,0.07304384,0.00012698,-0.0000119
 7,0.00003288,0.00013570,0.00023268,0.00032820,0.00002591,-0.00001508,-
 0.00001684,-0.00011296,0.00004857,0.00001685,-0.00000350,-0.00000398,0
 .00000927,0.00002084,0.00002916,-0.00001093,0.00001392,0.00000012,-0.0
 0002388,-0.00001140,-0.00002809,0.00002453,-0.00000972,-0.00000917,-0.
 00000592,0.00000200,-0.00001311,0.00000426,-0.00004599,0.00069283,0.00
 027718,0.00647013,-0.00964438,-0.01103133,0.02041662,-0.15712605,-0.13
 622553,-0.02219245,0.16904495,-0.00009179,0.00000110,-0.00001726,0.000
 12890,-0.00020846,-0.00011871,0.00000912,0.00001773,0.00000535,-0.0000
 5391,0.00001683,-0.00000527,0.00000765,0.00000501,-0.00001370,-0.00001
 550,-0.00002725,0.00001055,0.00001283,0.00000635,0.00002172,0.00001490
 ,0.00001570,-0.00002709,0.00000307,0.00001502,0.00001167,-0.00000516,0
 .00001299,-0.00000365,-0.00141555,0.00016100,0.00021323,0.00304295,0.0
 0296346,0.00513767,0.02740852,-0.13996566,-0.25451307,-0.03236349,0.15
 111256,0.26653166,-0.00017946,0.00037545,0.00007257,0.00024465,-0.0003
 6896,0.00070687,-0.00021985,-0.00011102,0.00005580,-0.00031317,0.00002
 591,0.00000893,0.00001862,0.00006410,-0.00010763,-0.00005656,-0.000135
 39,-0.00001831,0.00004668,0.00003700,0.00004153,-0.00002440,-0.0000609
 5,-0.00001926,0.00007810,-0.00008255,0.00007909,-0.00005022,0.00003463
 ,0.00000549,-0.00163661,-0.00017973,0.00175441,-0.00785540,0.02287674,
 -0.03101886,-0.06214282,0.02156864,-0.03189311,0.00098105,-0.00284159,
 0.00319722,0.07253969,0.00012995,-0.00001291,-0.00003210,0.00013418,0.
 00022780,-0.00033843,-0.00011078,0.00004738,-0.00001948,0.00002544,-0.
 00001504,0.00001776,0.00001323,0.00000074,0.00002463,0.00002119,0.0000
 3032,0.00001054,-0.00000364,-0.00000446,-0.00000958,-0.00000992,-0.000
 00943,0.00000652,-0.00001153,-0.00002941,-0.00002451,0.00000220,-0.000
 01365,-0.00000393,0.00000319,0.00067773,-0.00029235,0.00627329,-0.0093
 5365,0.01156123,0.01845129,-0.14799813,0.13280393,-0.00280555,0.015783
 00,-0.01814461,-0.01994210,0.15904739,0.00008589,0.00000179,-0.0000150
 1,-0.00013029,0.00019365,-0.00010973,0.00005601,-0.00001950,-0.0000031
 6,-0.00001243,-0.00001688,0.00000531,-0.00001332,-0.00000510,0.0000200
 6,0.00001421,0.00002543,0.00000936,-0.00000703,-0.00000501,-0.00001292
 ,-0.00000310,-0.00001479,0.00001176,-0.00001353,-0.00001631,-0.0000252
 0,0.00000470,-0.00001235,-0.00000301,0.00140132,-0.00017724,0.00025364
 ,-0.00335796,-0.00229852,0.00458058,-0.02650078,0.13656974,-0.26410213
 ,-0.00292490,0.01687494,-0.02150942,0.03149487,-0.14767058,0.27702731,
 0.00000530,-0.00003812,0.00000110,0.00048156,0.00073040,-0.00001418,-0
 .00018054,0.00013014,0.00008619,-0.00017797,0.00012674,-0.00009146,0.0
 0002640,0.00002539,-0.00006203,-0.00001337,-0.00001300,0.00000001,0.00
 002585,0.00002759,0.00006131,0.00004818,0.00001073,-0.00002723,0.00004
 801,0.00001186,0.00002775,0.00001604,0.00001968,-0.00000010,0.00149257
 ,0.00048967,-0.00000147,-0.03708536,-0.02082935,0.00020944,-0.11866848
 ,-0.03789367,0.00051660,0.00077251,-0.00022127,0.00004786,0.00058632,-
 0.00039147,-0.00004801,0.51255748,-0.00003814,0.00000948,-0.00000050,-
 0.00075635,-0.00046655,0.00001536,0.00037589,-0.00001299,0.00000191,0.
 00037280,-0.00001182,0.00000122,-0.00007065,-0.00002515,0.00003058,0.0
 0002403,0.00007141,-0.00000068,-0.00007071,-0.00002673,-0.00002974,0.0
 0004789,-0.00001338,0.00002339,0.00004726,-0.00001513,-0.00002475,0.00
 003433,-0.00005823,0.00000046,0.00320033,-0.00295330,0.00006185,0.0080
 5826,0.01544091,-0.00025921,-0.03299757,-0.12491366,0.00046527,-0.0182
 9557,-0.01752326,0.00296310,-0.01748332,-0.01690245,-0.00246282,-0.063
 78125,0.53151316,0.00000028,-0.00000042,-0.00000887,0.00001211,0.00002
 059,0.00064421,0.00007268,-0.00003190,-0.00001481,-0.00008622,0.000033
 03,-0.00001747,0.00001246,0.00001934,0.00001913,-0.00000062,-0.0000010
 0,0.00002197,-0.00001007,-0.00001758,0.00002132,0.00002595,0.00002918,
 -0.00007016,-0.00002641,-0.00003079,-0.00006825,-0.00000035,0.00000045
 ,-0.00003882,-0.00004802,0.00005201,-0.00001959,-0.00027291,-0.0003741
 4,-0.00196318,0.00043535,0.00044595,-0.08931036,-0.02334822,-0.0209663
 4,0.00219268,0.02393566,0.02160579,0.00175753,0.00078059,0.00064001,0.
 58483102,0.00002601,-0.00007078,-0.00001010,-0.00018876,0.00002350,0.0
 0002121,0.00004663,-0.00000366,-0.00000703,0.00001762,0.00001386,0.000
 01284,-0.00001336,-0.00000899,0.00001259,0.00001456,0.00003648,0.00000
 001,-0.00000189,-0.00001133,-0.00002369,-0.00001145,0.00002067,0.00002
 069,0.00001518,0.00002061,-0.00000190,0.00001830,-0.00001026,0.0000031
 3,-0.00055329,0.00036694,-0.00003919,0.00050925,-0.00135260,-0.0017990
 2,0.00502406,-0.01796407,-0.02607575,-0.00468347,-0.00437617,0.0008828
 6,0.00082507,0.00073580,0.00030606,-0.08172288,0.00994289,0.01277284,0
 .13706485,0.00002757,-0.00002674,-0.00001760,-0.00006273,0.00000341,0.
 00004616,0.00003716,-0.00000445,-0.00000500,0.00006752,0.00000013,0.00
 000632,-0.00000948,-0.00000771,0.00001061,0.00001196,0.00001595,0.0000
 0077,-0.00001132,-0.00001422,-0.00001021,-0.00000372,0.00001142,0.0000
 0274,0.00000268,0.00000490,-0.00000367,0.00000510,-0.00000704,0.000000
 53,0.00005065,-0.00026324,-0.00015336,0.00069204,0.00094603,-0.0000956
 3,-0.00418892,-0.02282883,-0.02542716,-0.00425588,-0.00287657,0.000474
 45,0.00124090,0.00050985,-0.00046262,0.01248001,-0.15242497,-0.1034247
 8,-0.08218684,0.72750827,0.00006121,-0.00002965,0.00002115,-0.00013459
 ,0.00007440,0.00001641,0.00004166,-0.00000959,-0.00001294,0.00010541,-
 0.00002384,0.00002166,-0.00001260,-0.00000968,0.00002323,0.00002266,0.
 00003595,-0.00000504,-0.00002366,-0.00001020,-0.00001575,0.00001822,-0
 .00000479,0.00000635,-0.00000953,-0.00000557,-0.00002267,0.00001057,-0
 .00001754,0.00000072,0.00039691,-0.00048203,-0.00026934,-0.00022415,-0
 .00011905,-0.00025422,-0.00935444,-0.00890393,-0.00007150,0.00099242,0
 .00072812,0.00021684,0.00076715,0.00140514,0.00100345,0.01615920,-0.10
 097985,-0.22498144,-0.11696599,0.85161953,1.33229504,-0.00001338,0.000
 02405,-0.00000046,0.00016636,0.00011552,-0.00000082,-0.00005679,0.0000
 2123,0.00001425,-0.00005661,0.00002078,-0.00001546,0.00001476,0.000011
 23,-0.00002288,-0.00002290,-0.00003845,0.00000052,0.00001454,0.0000119
 6,0.00002268,0.00000021,-0.00000905,-0.00001271,0.00000008,-0.00000865
 ,0.00001295,-0.00001245,0.00001437,-0.00000030,0.00000319,0.00046350,-
 0.00000810,-0.00467652,-0.00473850,0.00005684,-0.03955110,0.00865082,-
 0.00030204,0.00120476,0.00138133,-0.00021282,0.00119294,0.00138934,0.0
 0017498,-0.24407979,0.09489943,-0.00222595,-0.00664746,0.00614787,0.00
 599128,1.48775048,-0.00001302,0.00007142,-0.00000073,0.00047118,0.0001
 5928,-0.00000376,-0.00013568,0.00003035,0.00002546,-0.00013449,0.00002
 908,-0.00002720,0.00003676,0.00001474,-0.00003629,-0.00003843,-0.00008
 459,0.00000114,0.00003644,0.00001595,0.00003597,-0.00002340,-0.0000149
 3,-0.00002515,-0.00002365,-0.00001402,0.00002559,-0.00003654,0.0000354
 5,-0.00000068,-0.00057020,0.00038940,-0.00000648,-0.00457241,-0.004281
 99,0.00007040,-0.01845744,0.01855200,-0.00037333,-0.00088233,0.0004161
 4,-0.00025010,-0.00084047,0.00041675,0.00023362,0.09199924,-0.13156044
 ,0.00120773,0.02768203,-0.01756920,-0.00623389,-0.78680503,0.58068793,
 0.00000012,-0.00000074,0.00002197,-0.00000654,-0.00000476,-0.00016329,
 -0.00001825,0.00001045,0.00000929,0.00002218,-0.00001100,0.00001062,-0
 .00000105,-0.00000132,-0.00000402,0.00000057,0.00000124,-0.00000250,-0
 .00000002,0.00000074,-0.00000510,0.00000020,-0.00000223,0.00000641,0.0
 0000053,0.00000283,0.00000557,0.00000055,-0.00000049,0.00000317,0.0000
 0913,-0.00000277,0.00012432,0.00005367,0.00006972,0.00101046,0.0001502
 7,-0.00026666,0.00055087,-0.00128701,0.00021632,0.00011937,0.00132406,
 -0.00021523,0.00013022,-0.00217666,0.00121852,-0.08094911,0.03445519,-
 0.01982811,-0.00085880,0.01847566,-0.01068172,0.12581896,0.00002630,-0
 .00007061,0.00001245,-0.00018962,0.00002319,-0.00002375,0.00001858,0.0
 0001329,-0.00001329,0.00004697,-0.00000348,0.00000765,-0.00000229,-0.0
 0001063,0.00002414,0.00001473,0.00003674,-0.00000102,-0.00001337,-0.00
 000946,-0.00001256,0.00001512,0.00002062,0.00000153,-0.00001111,0.0000
 1994,-0.00002150,0.00001842,-0.00001049,-0.00000264,-0.00055078,0.0003
 6420,0.00002491,0.00049313,-0.00129266,0.00184940,0.00474305,-0.017154
 43,0.02670433,0.00083361,0.00073610,-0.00033226,-0.00466952,-0.0043985
 6,-0.00077498,-0.08150256,0.00874509,-0.01192888,0.00117714,-0.0029276
 4,0.00120955,-0.00632475,0.02646339,-0.03539682,0.13526863,0.00002541,
 -0.00002513,0.00001932,-0.00005785,-0.00000047,-0.00004591,0.00006417,
 0.00000073,-0.00000512,0.00003557,-0.00000398,0.00000502,-0.00001062,-
 0.00001355,0.00001004,0.00001122,0.00001473,-0.00000130,-0.00000896,-0
 .00000770,-0.00000969,0.00000297,0.00000517,0.00000278,-0.00000430,0.0
 0001147,-0.00000295,0.00000475,-0.00000647,-0.00000026,0.00003617,-0.0
 0024211,0.00015262,0.00069822,0.00095174,0.00006142,-0.00407546,-0.021
 65973,0.02611988,0.00121106,0.00047934,0.00048933,-0.00428355,-0.00291
 438,-0.00040377,0.01115086,-0.14568901,0.10086449,-0.00281144,0.016140
 03,-0.01997910,0.00578541,-0.01667709,0.02039706,-0.07174677,0.6713831
 2,-0.00006213,0.00003066,0.00001930,0.00013493,-0.00007366,0.00002097,
 -0.00010786,0.00002466,0.00002011,-0.00004221,0.00000925,-0.00001369,0
 .00002416,0.00001006,-0.00001602,-0.00002289,-0.00003632,-0.00000407,0
 .00001256,0.00001063,0.00002329,0.00000985,0.00000482,-0.00002288,-0.0
 0001825,0.00000476,0.00000594,-0.00001058,0.00001769,0.00000005,-0.000
 40054,0.00048398,-0.00029341,0.00020735,0.00006902,-0.00024395,0.00953
 475,0.00949085,-0.00095718,-0.00080939,-0.00138175,0.00102527,-0.00088
 847,-0.00065837,0.00024079,-0.01540166,0.09840041,-0.23193290,-0.00076
 779,0.01798696,-0.04287882,-0.00622966,0.00696888,-0.00207315,0.109839
 59,-0.83014046,1.39020781,0.00001603,0.00003433,-0.00000032,0.00022359
 ,-0.00000054,0.00000089,-0.00005023,0.00000218,0.00000469,-0.00005012,
 0.00000199,-0.00000516,0.00001842,0.00000476,-0.00001058,-0.00001245,-
 0.00003654,0.00000052,0.00001830,0.00000510,0.00001057,-0.00002760,-0.
 00000895,-0.00001160,-0.00002779,-0.00000858,0.00001157,-0.00002733,0.
 00001633,-0.00000040,-0.00014358,0.00000980,-0.00000063,-0.00007476,-0
 .00038525,0.00000563,0.00342854,0.00193920,-0.00001907,-0.00018915,-0.
 00025219,0.00000664,-0.00018686,-0.00025138,-0.00000026,0.00924991,0.0
 0503523,-0.00011784,-0.00201069,0.00115746,-0.00072255,-1.19033946,0.6
 7108266,-0.01571514,-0.00204530,0.00119454,0.00066507,1.18155722,0.000
 01970,-0.00005825,0.00000035,-0.00020193,-0.00004778,0.00000020,0.0000
 3474,-0.00001366,-0.00001237,0.00003433,-0.00001309,0.00001296,-0.0000
 1051,-0.00000648,0.00001769,0.00001437,0.00003546,-0.00000045,-0.00001
 025,-0.00000704,-0.00001755,0.00000187,0.00002197,0.00000867,0.0000023
 2,0.00002169,-0.00000904,0.00001634,-0.00000701,0.00000026,-0.00000851
 ,0.00005523,-0.00000137,0.00106953,0.00148900,-0.00001845,0.00092267,-
 0.00538321,0.00009392,0.00039432,0.00025552,0.00035349,0.00038737,0.00
 023962,-0.00035626,0.00539246,0.01657085,0.00004572,-0.00121545,0.0012
 3360,0.00056441,0.67309910,-0.43245470,0.00920116,-0.00108488,0.001153
 88,-0.00060325,-0.67931529,0.41695306,-0.00000009,0.00000046,-0.000038
 82,0.00000421,0.00000087,0.00000660,0.00000551,-0.00000392,-0.00000300
 ,-0.00000701,0.00000427,-0.00000365,-0.00000264,-0.00000025,0.00000004
 ,-0.00000030,-0.00000069,0.00000317,0.00000313,0.00000053,0.00000073,-
 0.00001129,-0.00000053,0.00000972,0.00001090,0.00000007,0.00001019,-0.
 00000040,0.00000027,0.00000496,-0.00000036,-0.00000119,-0.00001931,-0.
 00001861,-0.00002413,0.00013251,-0.00000198,0.00009777,0.00001805,0.00
 028475,0.00011825,0.00006589,-0.00029985,-0.00012604,0.00007952,-0.000
 12488,0.00004501,0.01807208,-0.00377000,0.00179746,0.00024305,-0.01574
 744,0.00919246,-0.03954730,0.00378986,-0.00181796,0.00035802,0.0158943
 5,-0.00929488,0.01986953,0.00004815,0.00004724,-0.00002653,0.00016954,
 0.00005963,-0.00010184,0.00007820,-0.00001166,-0.00001364,-0.00002460,
 -0.00000977,0.00000312,-0.00001111,-0.00000428,-0.00001824,0.00000010,
 -0.00002361,0.00000053,0.00001522,0.00000268,-0.00000962,-0.00004063,-
 0.00003483,0.00002328,-0.00000314,-0.00001980,0.00002992,-0.00002779,0
 .00000231,0.00001090,0.00046728,-0.00064751,0.00027393,-0.00082498,-0.
 00007829,0.00026902,-0.00207746,0.00134367,-0.00359958,-0.00006106,0.0
 0007422,0.00006087,0.00087996,0.00066937,0.00031258,0.01906102,0.00132
 155,-0.00069974,0.00037745,0.00056338,-0.00022712,0.00070125,-0.002566
 22,0.00350079,-0.04771978,0.06221075,-0.09586207,0.00033972,0.00021925
 ,-0.00059831,0.02862752,0.00001189,-0.00001517,-0.00003088,0.00006354,
 -0.00004390,0.00004555,-0.00008260,-0.00002941,-0.00001631,-0.00006040
 ,-0.00000915,0.00001497,0.00001993,0.00001148,0.00000479,-0.00000865,-
 0.00001400,0.00000283,0.00002060,0.00000490,-0.00000555,-0.00003566,0.
 00000713,0.00000982,-0.00001978,0.00000756,0.00000161,-0.00000857,0.00
 002169,0.00000007,-0.00021100,0.00026511,-0.00007076,0.00013792,-0.000
 21982,-0.00000229,0.00136113,0.00179493,-0.00107853,-0.00016854,0.0001
 4148,-0.00011230,-0.00010166,0.00014578,-0.00008455,0.00027378,0.01467
 984,0.00530759,0.00050341,-0.00277186,0.00385713,-0.00020830,0.0009348
 3,-0.00025856,0.06174380,-0.50001370,0.70307157,-0.00011607,-0.0000190
 7,0.00009630,-0.06299785,0.48438636,0.00002784,-0.00002479,-0.00006838
 ,-0.00010574,0.00002661,-0.00004729,0.00007916,-0.00002453,-0.00002522
 ,0.00002095,-0.00000591,0.00001167,-0.00002151,-0.00000295,0.00000595,
 0.00001295,0.00002562,0.00000560,-0.00000189,-0.00000367,-0.00002269,-
 0.00002283,-0.00000892,0.00004363,0.00002992,0.00000161,0.00001169,0.0
 0001157,-0.00000904,0.00001019,0.00030807,-0.00033465,0.00024404,-0.00
 010281,0.00026861,0.00012389,-0.00375397,-0.00114558,-0.00270809,0.000
 30443,0.00053927,0.00001522,0.00110112,0.00064217,0.00063424,0.0005758
 2,0.00560745,0.01072260,-0.00031777,-0.00024044,0.00198132,0.00055649,
 0.00107508,-0.00210347,-0.09524301,0.70387709,-1.11558605,-0.00019380,
 -0.00006652,0.00036558,0.09670094,-0.71046015,1.10648193,0.00004801,0.
 00004793,0.00002584,0.00016789,0.00006299,0.00010171,-0.00002429,-0.00
 000987,-0.00000305,0.00007856,-0.00001128,0.00001477,0.00001508,0.0000
 0297,0.00000975,0.00000019,-0.00002345,0.00000019,-0.00001143,-0.00000
 372,0.00001823,-0.00000265,-0.00002074,-0.00002937,-0.00004051,-0.0000
 3562,-0.00002274,-0.00002759,0.00000188,-0.00001128,0.00047155,-0.0006
 5868,-0.00025022,-0.00082309,-0.00008504,-0.00027367,-0.00213474,0.001
 45464,0.00355747,0.00089113,0.00066350,-0.00033292,-0.00005823,0.00007
 645,-0.00006405,0.01905980,0.00138857,0.00071731,-0.04928287,0.0711622
 2,0.10189839,0.00073265,-0.00267239,-0.00339143,0.00037338,0.00056786,
 0.00019525,0.00033358,0.00023847,0.00059045,0.00002513,-0.00011694,0.0
 0003407,0.03020846,0.00001071,-0.00001337,0.00002908,0.00006747,-0.000
 04620,-0.00004493,-0.00006103,-0.00000946,-0.00001484,-0.00008519,-0.0
 0002807,0.00001569,0.00002062,0.00000518,0.00000483,-0.00000905,-0.000
 01493,-0.00000223,0.00002066,0.00001140,-0.00000477,-0.00002076,0.0000
 0746,-0.00000165,-0.00003478,0.00000713,-0.00000890,-0.00000895,0.0000
 2196,-0.00000053,-0.00022169,0.00027846,0.00006787,0.00014102,-0.00022
 831,0.00001511,0.00147790,0.00186462,0.00093827,-0.00013899,0.00012787
 ,0.00010027,-0.00017945,0.00012713,0.00010711,0.00029957,0.01431144,-0
 .00542492,0.07066539,-0.54757877,-0.72147596,-0.00022797,0.00090364,0.
 00015554,0.00054326,-0.00288689,-0.00369038,-0.00010880,-0.00001961,-0
 .00008414,-0.00012021,0.00073499,0.00026364,-0.07202975,0.53242433,-0.
 00002714,0.00002334,-0.00007004,0.00010525,-0.00002613,-0.00004339,-0.
 00001928,0.00000652,0.00001176,-0.00007544,0.00002449,-0.00002705,0.00
 000155,0.00000278,-0.00002285,-0.00001270,-0.00002512,0.00000637,0.000
 02069,0.00000275,0.00000633,-0.00002938,-0.00000165,0.00001130,0.00002
 319,0.00000981,0.00004361,-0.00001160,0.00000867,0.00000973,-0.0002989
 7,0.00032825,0.00022617,0.00009043,-0.00025761,0.00013097,0.00371140,0
 .00100519,-0.00271984,-0.00109515,-0.00062011,0.00064107,-0.00029928,-
 0.00054249,0.00002681,-0.00051818,-0.00571700,0.01109243,0.10129082,-0
 .72227696,-1.06645871,-0.00052701,-0.00119701,-0.00210451,0.00028729,0
 .00040749,0.00210056,0.00019741,0.00008128,0.00037245,-0.00002918,-0.0
 0029232,-0.00009637,-0.10278472,0.72905584,1.05686319\\0.00000579,0.00
 000641,-0.00000262,-0.00000834,0.00000243,-0.00000080,-0.00000228,-0.0
 0000469,0.00000187,-0.00000385,-0.00000138,0.00000045,-0.00000126,-0.0
 0000026,0.00000329,-0.00000650,0.00000507,0.00000327,0.00000521,-0.000
 00558,-0.00000384,-0.00000098,0.00000278,0.00000197,0.00000142,0.00000
 212,-0.00000322,0.00000282,-0.00000196,-0.00000066,0.00000996,-0.00000
 749,0.00000039,-0.00000481,0.00001339,0.,0.00000364,-0.00001062,-0.000
 00104,0.00000186,0.00000321,0.00000220,0.00000333,0.00000082,-0.000000
 15,-0.00000608,-0.00000488,-0.00000157,0.00000127,0.00000171,0.0000029
 9,0.00000703,-0.00000400,0.00000346,-0.00000531,0.00000624,-0.00000438
 ,-0.00000331,0.00000170,-0.00000083,0.00000137,-0.00000260,0.00000204,
 -0.00000097,-0.00000242,-0.00000282\\\@
 Job cpu time:       0 days  5 hours 10 minutes 52.9 seconds.
 Elapsed time:       0 days  1 hours 38 minutes 29.4 seconds.
 File lengths (MBytes):  RWF= 116036 Int=      0 D2E=      0 Chk=     51 Scr=      1
 Normal termination of Gaussian 16 at Sat Jun 18 22:34:31 2022.
