 Entering Gaussian System, Link 0=/home/artemiy/opt/gaussian/g16/g16
 Input=1,1,1-Trifluoro-2,4-pentanedione_G4.gjf
 Output=1,1,1-Trifluoro-2,4-pentanedione_G4.log
 Initial command:
 /home/artemiy/opt/gaussian/g16/l1.exe "/home/artemiy/opt/gaussian/scr/Gau-16395.inp" -scrdir="/home/artemiy/opt/gaussian/scr/"
 Entering Link 1 = /home/artemiy/opt/gaussian/g16/l1.exe PID=     16398.
  
 Copyright (c) 1988,1990,1992,1993,1995,1998,2003,2009,2016,
            Gaussian, Inc.  All Rights Reserved.
  
 This is part of the Gaussian(R) 16 program.  It is based on
 the Gaussian(R) 09 system (copyright 2009, Gaussian, Inc.),
 the Gaussian(R) 03 system (copyright 2003, Gaussian, Inc.),
 the Gaussian(R) 98 system (copyright 1998, Gaussian, Inc.),
 the Gaussian(R) 94 system (copyright 1995, Gaussian, Inc.),
 the Gaussian 92(TM) system (copyright 1992, Gaussian, Inc.),
 the Gaussian 90(TM) system (copyright 1990, Gaussian, Inc.),
 the Gaussian 88(TM) system (copyright 1988, Gaussian, Inc.),
 the Gaussian 86(TM) system (copyright 1986, Carnegie Mellon
 University), and the Gaussian 82(TM) system (copyright 1983,
 Carnegie Mellon University). Gaussian is a federally registered
 trademark of Gaussian, Inc.
  
 This software contains proprietary and confidential information,
 including trade secrets, belonging to Gaussian, Inc.
  
 This software is provided under written license and may be
 used, copied, transmitted, or stored only in accord with that
 written license.
  
 The following legend is applicable only to US Government
 contracts under FAR:
  
                    RESTRICTED RIGHTS LEGEND
  
 Use, reproduction and disclosure by the US Government is
 subject to restrictions as set forth in subparagraphs (a)
 and (c) of the Commercial Computer Software - Restricted
 Rights clause in FAR 52.227-19.
  
 Gaussian, Inc.
 340 Quinnipiac St., Bldg. 40, Wallingford CT 06492
  
  
 ---------------------------------------------------------------
 Warning -- This program may not be used in any manner that
 competes with the business of Gaussian, Inc. or will provide
 assistance to any competitor of Gaussian, Inc.  The licensee
 of this program is prohibited from giving any competitor of
 Gaussian, Inc. access to this program.  By using this program,
 the user acknowledges that Gaussian, Inc. is engaged in the
 business of creating and licensing software in the field of
 computational chemistry and represents and warrants to the
 licensee that it is not a competitor of Gaussian, Inc. and that
 it will not use this program in any manner prohibited above.
 ---------------------------------------------------------------
  

 Cite this work as:
 Gaussian 16, Revision A.03,
 M. J. Frisch, G. W. Trucks, H. B. Schlegel, G. E. Scuseria, 
 M. A. Robb, J. R. Cheeseman, G. Scalmani, V. Barone, 
 G. A. Petersson, H. Nakatsuji, X. Li, M. Caricato, A. V. Marenich, 
 J. Bloino, B. G. Janesko, R. Gomperts, B. Mennucci, H. P. Hratchian, 
 J. V. Ortiz, A. F. Izmaylov, J. L. Sonnenberg, D. Williams-Young, 
 F. Ding, F. Lipparini, F. Egidi, J. Goings, B. Peng, A. Petrone, 
 T. Henderson, D. Ranasinghe, V. G. Zakrzewski, J. Gao, N. Rega, 
 G. Zheng, W. Liang, M. Hada, M. Ehara, K. Toyota, R. Fukuda, 
 J. Hasegawa, M. Ishida, T. Nakajima, Y. Honda, O. Kitao, H. Nakai, 
 T. Vreven, K. Throssell, J. A. Montgomery, Jr., J. E. Peralta, 
 F. Ogliaro, M. J. Bearpark, J. J. Heyd, E. N. Brothers, K. N. Kudin, 
 V. N. Staroverov, T. A. Keith, R. Kobayashi, J. Normand, 
 K. Raghavachari, A. P. Rendell, J. C. Burant, S. S. Iyengar, 
 J. Tomasi, M. Cossi, J. M. Millam, M. Klene, C. Adamo, R. Cammi, 
 J. W. Ochterski, R. L. Martin, K. Morokuma, O. Farkas, 
 J. B. Foresman, and D. J. Fox, Gaussian, Inc., Wallingford CT, 2016.
 
 ******************************************
 Gaussian 16:  ES64L-G16RevA.03 25-Dec-2016
                12-Nov-2021 
 ******************************************
 %mem=10GB
 %nprocshared=4
 Will use up to    4 processors via shared memory.
 -------------
 # g4 geom=gic
 -------------
 1/18=20,19=15,26=3,38=1,145=2/1,3;
 2/9=110,12=2,17=6,18=5,40=1/2;
 3/5=35,7=104,11=2,25=1,30=1,71=1,74=-5/1,2,3;
 4//1;
 5/5=2,38=5/2;
 6/7=2,8=2,9=2,10=2,28=1/1;
 7//1,2,3,16;
 1/18=20,19=15,26=3,145=2/3(2);
 2/9=110/2;
 99//99;
 2/9=110/2;
 3/5=35,7=104,11=2,25=1,30=1,71=1,74=-5/1,2,3;
 4/5=5,16=3,69=1/1;
 5/5=2,38=5/2;
 7//1,2,3,16;
 1/18=20,19=15,26=3,145=2/3(-5);
 2/9=110/2;
 6/7=2,8=2,9=2,10=2,19=2,28=1/1;
 99/9=1/99;
 -------------------
 CAS 367-57-7
 -------------------
 Symbolic Z-matrix:
 Charge =  0 Multiplicity = 1
 C                    -2.94108  -0.84479   0.26422 
 C                    -2.09614   0.33825  -0.07428 
 O                    -2.25946   1.4531    0.32098 
 C                    -0.92349   0.00668  -1.03882 
 C                     0.11584  -0.73297  -0.26627 
 O                     0.02965  -1.85826   0.13724 
 C                     1.3769    0.1232    0.04838 
 F                     1.93454   0.58426  -1.08367 
 F                     1.06105   1.19089   0.79146 
 F                     2.30682  -0.56656   0.7014 
 H                    -1.31441  -0.64265  -1.82223 
 H                    -0.53261   0.93481  -1.45407 
 H                    -2.31402  -1.70229   0.50054 
 H                    -3.55227  -1.10486  -0.59889 
 H                    -3.59437  -0.61155   1.10068 
 
 Initializing the GIC definitions file.

 GradGradGradGradGradGradGradGradGradGradGradGradGradGradGradGradGradGrad
 Berny optimization.
 Initialization pass.
                           ----------------------------
                           !    Initial Parameters    !
                           ! (Angstroms and Degrees)  !
 --------------------------                            --------------------------
 ! Name  Definition              Value          Derivative Info.                !
 --------------------------------------------------------------------------------
 ! R1    R(1,2)                  1.4927         estimate D2E/DX2                !
 ! R2    R(1,13)                 1.0883         estimate D2E/DX2                !
 ! R3    R(1,14)                 1.0891         estimate D2E/DX2                !
 ! R4    R(1,15)                 1.0867         estimate D2E/DX2                !
 ! R5    R(2,3)                  1.1941         estimate D2E/DX2                !
 ! R6    R(2,4)                  1.5542         estimate D2E/DX2                !
 ! R7    R(4,5)                  1.4913         estimate D2E/DX2                !
 ! R8    R(4,11)                 1.09           estimate D2E/DX2                !
 ! R9    R(4,12)                 1.0893         estimate D2E/DX2                !
 ! R10   R(5,6)                  1.1986         estimate D2E/DX2                !
 ! R11   R(5,7)                  1.5564         estimate D2E/DX2                !
 ! R12   R(7,8)                  1.3435         estimate D2E/DX2                !
 ! R13   R(7,9)                  1.3386         estimate D2E/DX2                !
 ! R14   R(7,10)                 1.3293         estimate D2E/DX2                !
 ! A1    A(2,1,13)             110.3393         estimate D2E/DX2                !
 ! A2    A(2,1,14)             109.0996         estimate D2E/DX2                !
 ! A3    A(2,1,15)             110.1667         estimate D2E/DX2                !
 ! A4    A(13,1,14)            107.8957         estimate D2E/DX2                !
 ! A5    A(13,1,15)            110.3867         estimate D2E/DX2                !
 ! A6    A(14,1,15)            108.8989         estimate D2E/DX2                !
 ! A7    A(1,2,3)              125.9797         estimate D2E/DX2                !
 ! A8    A(1,2,4)              113.5007         estimate D2E/DX2                !
 ! A9    A(3,2,4)              120.5188         estimate D2E/DX2                !
 ! A10   A(2,4,5)              108.0679         estimate D2E/DX2                !
 ! A11   A(2,4,11)             107.6096         estimate D2E/DX2                !
 ! A12   A(2,4,12)             108.9991         estimate D2E/DX2                !
 ! A13   A(5,4,11)             109.0739         estimate D2E/DX2                !
 ! A14   A(5,4,12)             111.7138         estimate D2E/DX2                !
 ! A15   A(11,4,12)            111.2397         estimate D2E/DX2                !
 ! A16   A(4,5,6)              126.1517         estimate D2E/DX2                !
 ! A17   A(4,5,7)              113.3639         estimate D2E/DX2                !
 ! A18   A(6,5,7)              120.4433         estimate D2E/DX2                !
 ! A19   A(5,7,8)              110.7773         estimate D2E/DX2                !
 ! A20   A(5,7,9)              111.0883         estimate D2E/DX2                !
 ! A21   A(5,7,10)             112.3771         estimate D2E/DX2                !
 ! A22   A(8,7,9)              106.9746         estimate D2E/DX2                !
 ! A23   A(8,7,10)             107.5567         estimate D2E/DX2                !
 ! A24   A(9,7,10)             107.8328         estimate D2E/DX2                !
 ! D1    D(13,1,2,3)          -135.1991         estimate D2E/DX2                !
 ! D2    D(13,1,2,4)            45.1268         estimate D2E/DX2                !
 ! D3    D(14,1,2,3)           106.4305         estimate D2E/DX2                !
 ! D4    D(14,1,2,4)           -73.2436         estimate D2E/DX2                !
 ! D5    D(15,1,2,3)           -13.0634         estimate D2E/DX2                !
 ! D6    D(15,1,2,4)           167.2625         estimate D2E/DX2                !
 ! D7    D(1,2,4,5)            -74.0393         estimate D2E/DX2                !
 ! D8    D(1,2,4,11)            43.6181         estimate D2E/DX2                !
 ! D9    D(1,2,4,12)           164.3661         estimate D2E/DX2                !
 ! D10   D(3,2,4,5)            106.2668         estimate D2E/DX2                !
 ! D11   D(3,2,4,11)          -136.0758         estimate D2E/DX2                !
 ! D12   D(3,2,4,12)           -15.3277         estimate D2E/DX2                !
 ! D13   D(2,4,5,6)             71.3198         estimate D2E/DX2                !
 ! D14   D(2,4,5,7)           -106.3404         estimate D2E/DX2                !
 ! D15   D(11,4,5,6)           -45.3923         estimate D2E/DX2                !
 ! D16   D(11,4,5,7)           136.9474         estimate D2E/DX2                !
 ! D17   D(12,4,5,6)          -168.779          estimate D2E/DX2                !
 ! D18   D(12,4,5,7)            13.5608         estimate D2E/DX2                !
 ! D19   D(4,5,7,8)            -57.7417         estimate D2E/DX2                !
 ! D20   D(4,5,7,9)             61.008          estimate D2E/DX2                !
 ! D21   D(4,5,7,10)          -178.0803         estimate D2E/DX2                !
 ! D22   D(6,5,7,8)            124.4497         estimate D2E/DX2                !
 ! D23   D(6,5,7,9)           -116.8007         estimate D2E/DX2                !
 ! D24   D(6,5,7,10)             4.111          estimate D2E/DX2                !
 --------------------------------------------------------------------------------
 Trust Radius=3.00D-01 FncErr=1.00D-07 GrdErr=1.00D-06 EigMax=2.50D+02 EigMin=1.00D-04
 Number of steps in this run=     72 maximum allowed number of steps=    100.
 GradGradGradGradGradGradGradGradGradGradGradGradGradGradGradGradGradGrad

                          Input orientation:                          
 ---------------------------------------------------------------------
 Center     Atomic      Atomic             Coordinates (Angstroms)
 Number     Number       Type             X           Y           Z
 ---------------------------------------------------------------------
      1          6           0       -2.941080   -0.844787    0.264215
      2          6           0       -2.096142    0.338247   -0.074276
      3          8           0       -2.259458    1.453097    0.320976
      4          6           0       -0.923486    0.006683   -1.038825
      5          6           0        0.115840   -0.732966   -0.266272
      6          8           0        0.029645   -1.858263    0.137237
      7          6           0        1.376904    0.123198    0.048377
      8          9           0        1.934542    0.584265   -1.083674
      9          9           0        1.061050    1.190893    0.791463
     10          9           0        2.306822   -0.566563    0.701399
     11          1           0       -1.314406   -0.642653   -1.822228
     12          1           0       -0.532608    0.934814   -1.454074
     13          1           0       -2.314020   -1.702294    0.500544
     14          1           0       -3.552267   -1.104862   -0.598890
     15          1           0       -3.594370   -0.611554    1.100682
 ---------------------------------------------------------------------
                    Distance matrix (angstroms):
                    1          2          3          4          5
     1  C    0.000000
     2  C    1.492671   0.000000
     3  O    2.397520   1.194063   0.000000
     4  C    2.548254   1.554158   2.392904   0.000000
     5  C    3.104623   2.465203   3.281124   1.491348   0.000000
     6  O    3.141412   3.064044   4.029747   2.402001   1.198558
     7  C    4.430414   3.481858   3.881503   2.547033   1.556375
     8  F    5.256490   4.162429   4.507499   2.916151   2.389753
     9  F    4.520954   3.382952   3.363908   2.947997   2.390284
    10  F    5.273426   4.561408   5.007460   3.713742   2.400933
    11  H    2.653332   2.151420   3.143026   1.090035   2.115363
    12  H    3.452569   2.168956   2.530104   1.089332   2.147754
    13  H    1.088289   2.131126   3.160967   2.687721   2.726137
    14  H    1.089100   2.116148   3.010093   2.887830   3.701885
    15  H    1.086675   2.127754   2.579286   3.477546   3.955877
                    6          7          8          9         10
     6  O    0.000000
     7  C    2.397747   0.000000
     8  F    3.329444   1.343532   0.000000
     9  F    3.284686   1.338624   2.155718   0.000000
    10  F    2.678116   1.329269   2.156265   2.156087   0.000000
    11  H    2.669023   3.365834   3.550557   3.979455   4.414496
    12  H    3.263384   2.561701   2.519308   2.765458   3.868147
    13  H    2.376781   4.142439   5.078226   4.454915   4.762606
    14  H    3.733576   5.120919   5.761357   5.337252   6.025731
    15  H    3.951709   5.134275   6.063849   5.001737   5.914856
                   11         12         13         14         15
    11  H    0.000000
    12  H    1.798652   0.000000
    13  H    2.741776   3.734742   0.000000
    14  H    2.591951   3.742987   1.760379   0.000000
    15  H    3.707102   4.276964   1.785827   1.770217   0.000000
 Stoichiometry    C5H5F3O2
 Framework group  C1[X(C5H5F3O2)]
 Deg. of freedom    39
 Full point group                 C1      NOp   1
 Largest Abelian subgroup         C1      NOp   1
 Largest concise Abelian subgroup C1      NOp   1
                         Standard orientation:                         
 ---------------------------------------------------------------------
 Center     Atomic      Atomic             Coordinates (Angstroms)
 Number     Number       Type             X           Y           Z
 ---------------------------------------------------------------------
      1          6           0       -2.854672    0.752238   -0.268778
      2          6           0       -1.981168   -0.414242    0.054303
      3          8           0       -2.118069   -1.527706   -0.354653
      4          6           0       -0.815767   -0.066570    1.021967
      5          6           0        0.204632    0.707396    0.257846
      6          8           0        0.090969    1.835217   -0.131568
      7          6           0        1.485568   -0.114219   -0.068429
      8          9           0        2.055368   -0.575757    1.057356
      9          9           0        1.194659   -1.179895   -0.824484
     10          9           0        2.397921    0.605762   -0.713562
     11          1           0       -1.221326    0.563402    1.813696
     12          1           0       -0.402236   -0.990114    1.425330
     13          1           0       -2.248666    1.627446   -0.494922
     14          1           0       -3.470989    0.986803    0.597981
     15          1           0       -3.503081    0.513761   -1.107560
 ---------------------------------------------------------------------
 Rotational constants (GHZ):           2.3131919           0.8934594           0.7786857
 Standard basis: GTBas3 (6D, 7F)
 There are   335 symmetry adapted cartesian basis functions of A   symmetry.
 There are   305 symmetry adapted basis functions of A   symmetry.
   305 basis functions,   475 primitive gaussians,   335 cartesian basis functions
    39 alpha electrons       39 beta electrons
       nuclear repulsion energy       572.9389768048 Hartrees.
 NAtoms=   15 NActive=   15 NUniq=   15 SFac= 1.00D+00 NAtFMM=   60 NAOKFM=F Big=F
 Integral buffers will be    131072 words long.
 Raffenetti 2 integral format.
 Two-electron integral symmetry is turned on.
 One-electron integrals computed using PRISM.
 NBasis=   305 RedAO= T EigKep=  6.94D-04  NBF=   305
 NBsUse=   305 1.00D-06 EigRej= -1.00D+00 NBFU=   305
 ExpMin= 1.61D-01 ExpMax= 7.00D+03 ExpMxC= 1.05D+03 IAcc=3 IRadAn=         5 AccDes= 0.00D+00
 Harris functional with IExCor=  402 and IRadAn=       5 diagonalized for initial guess.
 HarFok:  IExCor=  402 AccDes= 0.00D+00 IRadAn=         5 IDoV= 1 UseB2=F ITyADJ=14
 ICtDFT=  3500011 ScaDFX=  1.000000  1.000000  1.000000  1.000000
 FoFCou: FMM=F IPFlag=           0 FMFlag=      100000 FMFlg1=           0
         NFxFlg=           0 DoJE=T BraDBF=F KetDBF=T FulRan=T
         wScrn=  0.000000 ICntrl=       500 IOpCl=  0 I1Cent=   200000004 NGrid=           0
         NMat0=    1 NMatS0=      1 NMatT0=    0 NMatD0=    1 NMtDS0=    0 NMtDT0=    0
 Petite list used in FoFCou.
 Keep R1 ints in memory in canonical form, NReq=1107802389.
 Requested convergence on RMS density matrix=1.00D-08 within 128 cycles.
 Requested convergence on MAX density matrix=1.00D-06.
 Requested convergence on             energy=1.00D-06.
 No special actions if energy rises.
 Integral accuracy reduced to 1.0D-05 until final iterations.
 Initial convergence to 1.0D-05 achieved.  Increase integral accuracy.
 SCF Done:  E(RB3LYP) =  -643.539773459     A.U. after   14 cycles
            NFock= 14  Conv=0.43D-08     -V/T= 2.0060

 **********************************************************************

            Population analysis using the SCF density.

 **********************************************************************

 Orbital symmetries:
       Occupied  (A) (A) (A) (A) (A) (A) (A) (A) (A) (A) (A) (A)
                 (A) (A) (A) (A) (A) (A) (A) (A) (A) (A) (A) (A)
                 (A) (A) (A) (A) (A) (A) (A) (A) (A) (A) (A) (A)
                 (A) (A) (A)
       Virtual   (A) (A) (A) (A) (A) (A) (A) (A) (A) (A) (A) (A)
                 (A) (A) (A) (A) (A) (A) (A) (A) (A) (A) (A) (A)
                 (A) (A) (A) (A) (A) (A) (A) (A) (A) (A) (A) (A)
                 (A) (A) (A) (A) (A) (A) (A) (A) (A) (A) (A) (A)
                 (A) (A) (A) (A) (A) (A) (A) (A) (A) (A) (A) (A)
                 (A) (A) (A) (A) (A) (A) (A) (A) (A) (A) (A) (A)
                 (A) (A) (A) (A) (A) (A) (A) (A) (A) (A) (A) (A)
                 (A) (A) (A) (A) (A) (A) (A) (A) (A) (A) (A) (A)
                 (A) (A) (A) (A) (A) (A) (A) (A) (A) (A) (A) (A)
                 (A) (A) (A) (A) (A) (A) (A) (A) (A) (A) (A) (A)
                 (A) (A) (A) (A) (A) (A) (A) (A) (A) (A) (A) (A)
                 (A) (A) (A) (A) (A) (A) (A) (A) (A) (A) (A) (A)
                 (A) (A) (A) (A) (A) (A) (A) (A) (A) (A) (A) (A)
                 (A) (A) (A) (A) (A) (A) (A) (A) (A) (A) (A) (A)
                 (A) (A) (A) (A) (A) (A) (A) (A) (A) (A) (A) (A)
                 (A) (A) (A) (A) (A) (A) (A) (A) (A) (A) (A) (A)
                 (A) (A) (A) (A) (A) (A) (A) (A) (A) (A) (A) (A)
                 (A) (A) (A) (A) (A) (A) (A) (A) (A) (A) (A) (A)
                 (A) (A) (A) (A) (A) (A) (A) (A) (A) (A) (A) (A)
                 (A) (A) (A) (A) (A) (A) (A) (A) (A) (A) (A) (A)
                 (A) (A) (A) (A) (A) (A) (A) (A) (A) (A) (A) (A)
                 (A) (A) (A) (A) (A) (A) (A) (A) (A) (A) (A) (A)
                 (A) (A)
 The electronic state is 1-A.
 Alpha  occ. eigenvalues --  -24.73720 -24.73715 -24.73323 -19.18068 -19.15428
 Alpha  occ. eigenvalues --  -10.43442 -10.31646 -10.29782 -10.22274 -10.20025
 Alpha  occ. eigenvalues --   -1.32489  -1.23422  -1.23368  -1.09415  -1.07139
 Alpha  occ. eigenvalues --   -0.82047  -0.76471  -0.72514  -0.64069  -0.60085
 Alpha  occ. eigenvalues --   -0.59953  -0.56162  -0.53927  -0.50006  -0.48442
 Alpha  occ. eigenvalues --   -0.48047  -0.47187  -0.47138  -0.44430  -0.44137
 Alpha  occ. eigenvalues --   -0.43661  -0.43390  -0.41599  -0.41427  -0.40537
 Alpha  occ. eigenvalues --   -0.39487  -0.38039  -0.29418  -0.26776
 Alpha virt. eigenvalues --   -0.07479  -0.02099   0.08797   0.11469   0.12529
 Alpha virt. eigenvalues --    0.14606   0.15368   0.16040   0.17238   0.18978
 Alpha virt. eigenvalues --    0.20794   0.21761   0.26271   0.27110   0.28509
 Alpha virt. eigenvalues --    0.31991   0.36486   0.40793   0.42116   0.44331
 Alpha virt. eigenvalues --    0.46978   0.49781   0.49897   0.51960   0.53419
 Alpha virt. eigenvalues --    0.53734   0.57424   0.58801   0.59016   0.61582
 Alpha virt. eigenvalues --    0.63971   0.64384   0.66936   0.69628   0.70708
 Alpha virt. eigenvalues --    0.72161   0.73291   0.74255   0.75522   0.78080
 Alpha virt. eigenvalues --    0.79047   0.80283   0.82027   0.82577   0.85514
 Alpha virt. eigenvalues --    0.86275   0.87198   0.89291   0.90021   0.92518
 Alpha virt. eigenvalues --    0.92801   0.94372   0.96262   0.97544   0.98138
 Alpha virt. eigenvalues --    0.98665   0.99641   1.02392   1.03297   1.04608
 Alpha virt. eigenvalues --    1.05473   1.07204   1.08999   1.10865   1.10927
 Alpha virt. eigenvalues --    1.13849   1.16219   1.17817   1.20554   1.24250
 Alpha virt. eigenvalues --    1.26641   1.28583   1.29612   1.33764   1.34943
 Alpha virt. eigenvalues --    1.37174   1.39029   1.40873   1.42414   1.46017
 Alpha virt. eigenvalues --    1.46635   1.48553   1.50778   1.51223   1.53297
 Alpha virt. eigenvalues --    1.56021   1.57391   1.58852   1.62044   1.65538
 Alpha virt. eigenvalues --    1.66122   1.70249   1.71191   1.73965   1.77410
 Alpha virt. eigenvalues --    1.79113   1.80372   1.82762   1.84634   1.87042
 Alpha virt. eigenvalues --    1.90755   1.92923   1.93986   1.95691   1.99831
 Alpha virt. eigenvalues --    2.02971   2.06035   2.08259   2.14504   2.17390
 Alpha virt. eigenvalues --    2.24080   2.26944   2.30037   2.32871   2.36489
 Alpha virt. eigenvalues --    2.43640   2.46422   2.57786   2.62793   2.66364
 Alpha virt. eigenvalues --    2.70969   2.76174   2.80801   2.83586   2.84541
 Alpha virt. eigenvalues --    2.89929   2.90409   2.95131   2.95978   2.99032
 Alpha virt. eigenvalues --    3.03289   3.05021   3.09652   3.11712   3.14847
 Alpha virt. eigenvalues --    3.15295   3.16977   3.20019   3.22052   3.27816
 Alpha virt. eigenvalues --    3.31239   3.31680   3.35916   3.42506   3.46147
 Alpha virt. eigenvalues --    3.48819   3.56709   3.58676   3.61968   3.64976
 Alpha virt. eigenvalues --    3.66266   3.70150   3.72744   3.75693   3.77770
 Alpha virt. eigenvalues --    3.82626   3.84460   3.86167   3.93235   3.94883
 Alpha virt. eigenvalues --    3.98299   4.02278   4.03917   4.08005   4.09865
 Alpha virt. eigenvalues --    4.11844   4.13649   4.13872   4.15901   4.16853
 Alpha virt. eigenvalues --    4.17619   4.19354   4.21639   4.22359   4.22836
 Alpha virt. eigenvalues --    4.24873   4.26494   4.29448   4.29790   4.31405
 Alpha virt. eigenvalues --    4.33631   4.37042   4.40091   4.42807   4.46974
 Alpha virt. eigenvalues --    4.48522   4.50537   4.52066   4.53500   4.56538
 Alpha virt. eigenvalues --    4.57785   4.59379   4.63737   4.64701   4.66971
 Alpha virt. eigenvalues --    4.68300   4.69323   4.69887   4.73062   4.73613
 Alpha virt. eigenvalues --    4.77538   4.80162   4.81634   4.83219   4.86244
 Alpha virt. eigenvalues --    4.87859   4.89902   4.92817   5.01176   5.02046
 Alpha virt. eigenvalues --    5.03453   5.06522   5.08658   5.12851   5.15670
 Alpha virt. eigenvalues --    5.20655   5.21976   5.36389   5.41539   5.48406
 Alpha virt. eigenvalues --    5.52861   5.55238   5.64874   5.67278   5.78169
 Alpha virt. eigenvalues --    5.94323   6.02331   6.05128   6.24514   6.36669
 Alpha virt. eigenvalues --    6.39191   6.45661   6.49323   6.59544   6.60050
 Alpha virt. eigenvalues --    6.60275   6.60307   6.60668   6.61880   6.63823
 Alpha virt. eigenvalues --    6.66317   6.72010   6.77694   6.79203   6.84040
 Alpha virt. eigenvalues --    6.92847   6.94378   7.16991   7.19485   7.22359
 Alpha virt. eigenvalues --    7.39435   7.41307   7.41752   7.46828   7.52208
 Alpha virt. eigenvalues --    7.87342   9.56978   9.64542   9.69518  10.81057
 Alpha virt. eigenvalues --   11.34798  11.98407  12.21138  12.42824  13.05612
 Alpha virt. eigenvalues --   13.23931
          Condensed to atoms (all electrons):
               1          2          3          4          5          6
     1  C    5.297206   0.336968  -0.071496  -0.135597   0.000484  -0.005859
     2  C    0.336968   4.270877   0.815935   0.283576  -0.023294  -0.005380
     3  O   -0.071496   0.815935   7.593606  -0.082287  -0.001540   0.000054
     4  C   -0.135597   0.283576  -0.082287   5.536658   0.232831  -0.063900
     5  C    0.000484  -0.023294  -0.001540   0.232831   4.674379   0.732021
     6  O   -0.005859  -0.005380   0.000054  -0.063900   0.732021   7.642104
     7  C    0.000185  -0.000361   0.000124  -0.055403   0.272143  -0.042692
     8  F   -0.000005   0.000412  -0.000001   0.003344  -0.034124   0.000326
     9  F    0.000065   0.004604  -0.000367   0.004225  -0.040689   0.000085
    10  F   -0.000000   0.000033  -0.000000   0.001769  -0.027583  -0.000635
    11  H   -0.000951  -0.012978   0.002045   0.341018  -0.011586  -0.002064
    12  H    0.005658  -0.008371   0.002943   0.333960  -0.018224   0.002477
    13  H    0.350356  -0.012651   0.001696  -0.003571   0.002417   0.017072
    14  H    0.355336  -0.013977   0.000343   0.002519  -0.000472   0.000192
    15  H    0.352919  -0.012370   0.001155   0.005812   0.000310   0.000068
               7          8          9         10         11         12
     1  C    0.000185  -0.000005   0.000065  -0.000000  -0.000951   0.005658
     2  C   -0.000361   0.000412   0.004604   0.000033  -0.012978  -0.008371
     3  O    0.000124  -0.000001  -0.000367  -0.000000   0.002045   0.002943
     4  C   -0.055403   0.003344   0.004225   0.001769   0.341018   0.333960
     5  C    0.272143  -0.034124  -0.040689  -0.027583  -0.011586  -0.018224
     6  O   -0.042692   0.000326   0.000085  -0.000635  -0.002064   0.002477
     7  C    4.331797   0.399356   0.413970   0.457919   0.000498   0.005028
     8  F    0.399356   8.784820  -0.043751  -0.040571  -0.000132   0.005381
     9  F    0.413970  -0.043751   8.767063  -0.041650   0.000093  -0.000018
    10  F    0.457919  -0.040571  -0.041650   8.700540  -0.000010   0.000152
    11  H    0.000498  -0.000132   0.000093  -0.000010   0.560353  -0.028503
    12  H    0.005028   0.005381  -0.000018   0.000152  -0.028503   0.545401
    13  H    0.000416  -0.000001  -0.000014  -0.000002   0.000829   0.000024
    14  H   -0.000007   0.000000  -0.000000   0.000000   0.001365  -0.000121
    15  H    0.000004   0.000000  -0.000000  -0.000000   0.000040  -0.000157
              13         14         15
     1  C    0.350356   0.355336   0.352919
     2  C   -0.012651  -0.013977  -0.012370
     3  O    0.001696   0.000343   0.001155
     4  C   -0.003571   0.002519   0.005812
     5  C    0.002417  -0.000472   0.000310
     6  O    0.017072   0.000192   0.000068
     7  C    0.000416  -0.000007   0.000004
     8  F   -0.000001   0.000000   0.000000
     9  F   -0.000014  -0.000000  -0.000000
    10  F   -0.000002   0.000000  -0.000000
    11  H    0.000829   0.001365   0.000040
    12  H    0.000024  -0.000121  -0.000157
    13  H    0.513930  -0.023695  -0.022226
    14  H   -0.023695   0.551616  -0.023338
    15  H   -0.022226  -0.023338   0.549790
 Mulliken charges:
               1
     1  C   -0.485269
     2  C    0.376977
     3  O   -0.262210
     4  C   -0.404953
     5  C    0.242926
     6  O   -0.273869
     7  C    0.217024
     8  F   -0.075054
     9  F   -0.063613
    10  F   -0.049962
    11  H    0.149982
    12  H    0.154370
    13  H    0.175419
    14  H    0.150240
    15  H    0.147992
 Sum of Mulliken charges =  -0.00000
 Mulliken charges with hydrogens summed into heavy atoms:
               1
     1  C   -0.011618
     2  C    0.376977
     3  O   -0.262210
     4  C   -0.100600
     5  C    0.242926
     6  O   -0.273869
     7  C    0.217024
     8  F   -0.075054
     9  F   -0.063613
    10  F   -0.049962
 Electronic spatial extent (au):  <R**2>=           1456.0021
 Charge=             -0.0000 electrons
 Dipole moment (field-independent basis, Debye):
    X=             -1.5557    Y=              1.0301    Z=              1.8438  Tot=              2.6231
 Quadrupole moment (field-independent basis, Debye-Ang):
   XX=            -53.4584   YY=            -61.7009   ZZ=            -52.1915
   XY=             -5.3862   XZ=             -1.7830   YZ=             -0.2805
 Traceless Quadrupole moment (field-independent basis, Debye-Ang):
   XX=              2.3252   YY=             -5.9173   ZZ=              3.5921
   XY=             -5.3862   XZ=             -1.7830   YZ=             -0.2805
 Octapole moment (field-independent basis, Debye-Ang**2):
  XXX=             18.5775  YYY=             -9.6924  ZZZ=             -3.8298  XYY=             17.3669
  XXY=             10.2180  XXZ=              1.7873  XZZ=              6.3443  YZZ=             -0.8297
  YYZ=              2.5880  XYZ=              3.1682
 Hexadecapole moment (field-independent basis, Debye-Ang**3):
 XXXX=          -1068.6298 YYYY=           -367.7799 ZZZZ=           -173.5738 XXXY=            -28.7744
 XXXZ=             -9.0922 YYYX=            -10.6296 YYYZ=             -1.2792 ZZZX=             -4.1894
 ZZZY=              1.7432 XXYY=           -256.3774 XXZZ=           -206.7908 YYZZ=            -84.6474
 XXYZ=             -1.0750 YYXZ=             -3.8499 ZZXY=             -0.6994
 N-N= 5.729389768048D+02 E-N=-2.663675569422D+03  KE= 6.397026197648D+02
 Calling FoFJK, ICntrl=      2127 FMM=F ISym2X=0 I1Cent= 0 IOpClX= 0 NMat=1 NMatS=1 NMatT=0.
 ***** Axes restored to original set *****
 -------------------------------------------------------------------
 Center     Atomic                   Forces (Hartrees/Bohr)
 Number     Number              X              Y              Z
 -------------------------------------------------------------------
      1        6          -0.006143569   -0.000985835    0.007910431
      2        6           0.007625724   -0.005530634   -0.009065954
      3        8          -0.003672724    0.012124695    0.005707809
      4        6          -0.007648429    0.005817144   -0.002258244
      5        6           0.012183641    0.005508316    0.000234618
      6        8           0.000751775   -0.005881809    0.002084962
      7        6           0.015565248    0.002305633    0.005122363
      8        9          -0.004073933   -0.002390481   -0.002726903
      9        9          -0.006445169   -0.001209568   -0.000123607
     10        9          -0.004845017   -0.002912107   -0.001133996
     11        1           0.001106756   -0.001626000   -0.002641061
     12        1          -0.000689871   -0.000512348   -0.000557915
     13        1           0.000860222   -0.003353682   -0.000571452
     14        1          -0.002120722   -0.002007728   -0.004047771
     15        1          -0.002453931    0.000654406    0.002066723
 -------------------------------------------------------------------
 Cartesian Forces:  Max     0.015565248 RMS     0.005208455

 GradGradGradGradGradGradGradGradGradGradGradGradGradGradGradGradGradGrad
 Berny optimization.
 FormGI is forming the generalized inverse of G from B-inverse, IUseBI=4.
 Internal  Forces:  Max     0.013712142 RMS     0.004371226
 Search for a local minimum.
 Step number   1 out of a maximum of   72
 All quantities printed in internal units (Hartrees-Bohrs-Radians)
 Mixed Optimization -- RFO/linear search
 Second derivative matrix not updated -- first step.
 ITU=  0
     Eigenvalues ---    0.00230   0.00230   0.00566   0.00580   0.00863
     Eigenvalues ---    0.00880   0.05526   0.06692   0.07389   0.07631
     Eigenvalues ---    0.09111   0.10433   0.10797   0.12734   0.16000
     Eigenvalues ---    0.16000   0.16000   0.22067   0.24975   0.25000
     Eigenvalues ---    0.25000   0.25000   0.25000   0.25000   0.25000
     Eigenvalues ---    0.27116   0.27301   0.33159   0.33302   0.34809
     Eigenvalues ---    0.34890   0.34917   0.35011   0.35200   0.56421
     Eigenvalues ---    0.57515   0.59679   1.05551   1.07864
 RFO step:  Lambda=-4.20138967D-03 EMin= 2.30000000D-03
 Linear search not attempted -- first point.
 Iteration  1 RMS(Cart)=  0.07966551 RMS(Int)=  0.00178170
 Iteration  2 RMS(Cart)=  0.00222859 RMS(Int)=  0.00020975
 Iteration  3 RMS(Cart)=  0.00000282 RMS(Int)=  0.00020974
 Iteration  4 RMS(Cart)=  0.00000000 RMS(Int)=  0.00020974
 Variable       Old X    -DE/DX   Delta X   Delta X   Delta X     New X
                                 (Linear)    (Quad)   (Total)
    R1        2.82074   0.01131   0.00000   0.03367   0.03367   2.85441
    R2        2.05657   0.00301   0.00000   0.00851   0.00851   2.06508
    R3        2.05810   0.00488   0.00000   0.01380   0.01380   2.07190
    R4        2.05352   0.00321   0.00000   0.00900   0.00900   2.06252
    R5        2.25645   0.01371   0.00000   0.01266   0.01266   2.26912
    R6        2.93693   0.00589   0.00000   0.02124   0.02124   2.95818
    R7        2.81824   0.01322   0.00000   0.03920   0.03920   2.85744
    R8        2.05987   0.00247   0.00000   0.00701   0.00701   2.06688
    R9        2.05854  -0.00047   0.00000  -0.00133  -0.00133   2.05720
   R10        2.26495   0.00617   0.00000   0.00582   0.00582   2.27077
   R11        2.94112  -0.00192   0.00000  -0.00698  -0.00698   2.93415
   R12        2.53891  -0.00021   0.00000  -0.00038  -0.00038   2.53853
   R13        2.52963   0.00049   0.00000   0.00084   0.00084   2.53047
   R14        2.51195  -0.00244   0.00000  -0.00405  -0.00405   2.50790
    A1        1.92578   0.00144   0.00000   0.00908   0.00904   1.93483
    A2        1.90415  -0.00025   0.00000  -0.00432  -0.00431   1.89984
    A3        1.92277   0.00044   0.00000   0.00522   0.00517   1.92794
    A4        1.88313  -0.00155   0.00000  -0.01449  -0.01448   1.86865
    A5        1.92661   0.00002   0.00000   0.00539   0.00530   1.93192
    A6        1.90065  -0.00017   0.00000  -0.00154  -0.00154   1.89911
    A7        2.19876  -0.00683   0.00000  -0.02698  -0.02740   2.17136
    A8        1.98096   0.00859   0.00000   0.03369   0.03325   2.01421
    A9        2.10345  -0.00176   0.00000  -0.00699  -0.00746   2.09599
   A10        1.88614   0.00743   0.00000   0.03741   0.03727   1.92341
   A11        1.87814   0.00021   0.00000   0.01614   0.01599   1.89413
   A12        1.90239  -0.00299   0.00000  -0.01593  -0.01578   1.88661
   A13        1.90370  -0.00260   0.00000  -0.00913  -0.00972   1.89398
   A14        1.94977  -0.00189   0.00000  -0.01185  -0.01182   1.93796
   A15        1.94150   0.00015   0.00000  -0.01398  -0.01408   1.92742
   A16        2.20176  -0.00126   0.00000  -0.00503  -0.00504   2.19672
   A17        1.97857   0.00496   0.00000   0.01943   0.01942   1.99800
   A18        2.10213  -0.00371   0.00000  -0.01469  -0.01470   2.08744
   A19        1.93343  -0.00635   0.00000  -0.02487  -0.02522   1.90821
   A20        1.93886  -0.00864   0.00000  -0.03534  -0.03578   1.90308
   A21        1.96135  -0.00530   0.00000  -0.01957  -0.01985   1.94150
   A22        1.86706   0.00710   0.00000   0.02544   0.02492   1.89198
   A23        1.87722   0.00694   0.00000   0.02986   0.02967   1.90689
   A24        1.88204   0.00762   0.00000   0.02983   0.02947   1.91151
    D1       -2.35967  -0.00103   0.00000  -0.03380  -0.03364  -2.39330
    D2        0.78761  -0.00049   0.00000   0.02247   0.02223   0.80984
    D3        1.85756   0.00015   0.00000  -0.01887  -0.01867   1.83889
    D4       -1.27834   0.00070   0.00000   0.03740   0.03720  -1.24114
    D5       -0.22800   0.00024   0.00000  -0.01748  -0.01724  -0.24524
    D6        2.91928   0.00079   0.00000   0.03880   0.03863   2.95791
    D7       -1.29223  -0.00095   0.00000  -0.10869  -0.10914  -1.40137
    D8        0.76128   0.00004   0.00000  -0.09101  -0.09096   0.67032
    D9        2.86873  -0.00137   0.00000  -0.10746  -0.10766   2.76107
   D10        1.85471  -0.00041   0.00000  -0.05575  -0.05580   1.79891
   D11       -2.37497   0.00057   0.00000  -0.03807  -0.03761  -2.41259
   D12       -0.26752  -0.00084   0.00000  -0.05452  -0.05431  -0.32183
   D13        1.24477   0.00121   0.00000   0.02957   0.02956   1.27433
   D14       -1.85599   0.00132   0.00000   0.03802   0.03803  -1.81796
   D15       -0.79225  -0.00173   0.00000  -0.00530  -0.00521  -0.79745
   D16        2.39018  -0.00162   0.00000   0.00315   0.00326   2.39344
   D17       -2.94575   0.00119   0.00000   0.02692   0.02681  -2.91894
   D18        0.23668   0.00129   0.00000   0.03537   0.03527   0.27195
   D19       -1.00778   0.00035   0.00000  -0.02334  -0.02347  -1.03126
   D20        1.06479  -0.00044   0.00000  -0.03041  -0.03032   1.03447
   D21       -3.10809  -0.00047   0.00000  -0.03079  -0.03071  -3.13880
   D22        2.17206   0.00041   0.00000  -0.01562  -0.01577   2.15628
   D23       -2.03856  -0.00039   0.00000  -0.02269  -0.02262  -2.06117
   D24        0.07175  -0.00042   0.00000  -0.02307  -0.02301   0.04874
         Item               Value     Threshold  Converged?
 Maximum Force            0.013712     0.000450     NO 
 RMS     Force            0.004371     0.000300     NO 
 Maximum Displacement     0.293276     0.001800     NO 
 RMS     Displacement     0.079767     0.001200     NO 
 Predicted change in Energy=-2.240172D-03
 GradGradGradGradGradGradGradGradGradGradGradGradGradGradGradGradGradGrad

                          Input orientation:                          
 ---------------------------------------------------------------------
 Center     Atomic      Atomic             Coordinates (Angstroms)
 Number     Number       Type             X           Y           Z
 ---------------------------------------------------------------------
      1          6           0       -3.026145   -0.834282    0.261905
      2          6           0       -2.085804    0.309432   -0.036854
      3          8           0       -2.228327    1.429509    0.371739
      4          6           0       -0.909464   -0.025942   -1.013699
      5          6           0        0.200716   -0.734136   -0.270477
      6          8           0        0.172088   -1.869169    0.122994
      7          6           0        1.436928    0.153419    0.037500
      8          9           0        1.948424    0.618606   -1.114246
      9          9           0        1.050386    1.198028    0.780792
     10          9           0        2.370663   -0.531124    0.686189
     11          1           0       -1.285581   -0.693237   -1.794423
     12          1           0       -0.555198    0.906787   -1.449151
     13          1           0       -2.469215   -1.745526    0.493541
     14          1           0       -3.626164   -1.042323   -0.631850
     15          1           0       -3.696342   -0.572788    1.082694
 ---------------------------------------------------------------------
                    Distance matrix (angstroms):
                    1          2          3          4          5
     1  C    0.000000
     2  C    1.510490   0.000000
     3  O    2.402775   1.200764   0.000000
     4  C    2.600177   1.565400   2.403575   0.000000
     5  C    3.272017   2.524240   3.315728   1.512090   0.000000
     6  O    3.364369   3.141643   4.087192   2.420601   1.201640
     7  C    4.576563   3.526968   3.895409   2.577351   1.552683
     8  F    5.361997   4.187046   4.506769   2.931395   2.365659
     9  F    4.584499   3.360630   3.312230   2.925629   2.358042
    10  F    5.421943   4.592322   5.009359   3.728815   2.380146
    11  H    2.697766   2.175948   3.176016   1.093745   2.129123
    12  H    3.473415   2.166603   2.527497   1.088625   2.157153
    13  H    1.092791   2.156658   3.186489   2.767954   2.955532
    14  H    1.096404   2.134004   3.011826   2.925628   3.856239
    15  H    1.091438   2.150705   2.582580   3.529956   4.128458
                    6          7          8          9         10
     6  O    0.000000
     7  C    2.387047   0.000000
     8  F    3.297750   1.343333   0.000000
     9  F    3.257576   1.339069   2.175631   0.000000
    10  F    2.634632   1.327125   2.177551   2.177624   0.000000
    11  H    2.680318   3.388926   3.555610   3.957949   4.421294
    12  H    3.272081   2.597356   2.542309   2.763217   3.897169
    13  H    2.670033   4.367141   5.262095   4.597240   4.993627
    14  H    3.959820   5.245257   5.836731   5.374462   6.161208
    15  H    4.191226   5.288692   6.173277   5.075269   6.080091
                   11         12         13         14         15
    11  H    0.000000
    12  H    1.792414   0.000000
    13  H    2.782640   3.804245   0.000000
    14  H    2.636620   3.727981   1.760548   0.000000
    15  H    3.755540   4.297228   1.796735   1.779058   0.000000
 Stoichiometry    C5H5F3O2
 Framework group  C1[X(C5H5F3O2)]
 Deg. of freedom    39
 Full point group                 C1      NOp   1
 Largest Abelian subgroup         C1      NOp   1
 Largest concise Abelian subgroup C1      NOp   1
                         Standard orientation:                         
 ---------------------------------------------------------------------
 Center     Atomic      Atomic             Coordinates (Angstroms)
 Number     Number       Type             X           Y           Z
 ---------------------------------------------------------------------
      1          6           0       -2.971977    0.728264   -0.253508
      2          6           0       -1.998155   -0.386395    0.047800
      3          8           0       -2.115456   -1.514770   -0.345704
      4          6           0       -0.820078   -0.008050    1.006688
      5          6           0        0.262280    0.720164    0.242083
      6          8           0        0.198937    1.849141   -0.164533
      7          6           0        1.518092   -0.138030   -0.069790
      8          9           0        2.054925   -0.575378    1.081332
      9          9           0        1.151039   -1.201527   -0.795980
     10          9           0        2.425790    0.563024   -0.737522
     11          1           0       -1.204888    0.658547    1.783765
     12          1           0       -0.436144   -0.925669    1.449041
     13          1           0       -2.442198    1.651041   -0.502522
     14          1           0       -3.567071    0.931253    0.644690
     15          1           0       -3.644307    0.439084   -1.063190
 ---------------------------------------------------------------------
 Rotational constants (GHZ):           2.3151216           0.8716095           0.7626593
 Standard basis: GTBas3 (6D, 7F)
 There are   335 symmetry adapted cartesian basis functions of A   symmetry.
 There are   305 symmetry adapted basis functions of A   symmetry.
   305 basis functions,   475 primitive gaussians,   335 cartesian basis functions
    39 alpha electrons       39 beta electrons
       nuclear repulsion energy       569.4020351821 Hartrees.
 NAtoms=   15 NActive=   15 NUniq=   15 SFac= 1.00D+00 NAtFMM=   60 NAOKFM=F Big=F
 Integral buffers will be    131072 words long.
 Raffenetti 2 integral format.
 Two-electron integral symmetry is turned on.
 One-electron integrals computed using PRISM.
 NBasis=   305 RedAO= T EigKep=  7.03D-04  NBF=   305
 NBsUse=   305 1.00D-06 EigRej= -1.00D+00 NBFU=   305
 Initial guess from the checkpoint file:  "/home/artemiy/opt/gaussian/scr/Gau-16398.chk"
 B after Tr=     0.000000   -0.000000   -0.000000
         Rot=    0.999941    0.009872   -0.001311    0.004360 Ang=   1.25 deg.
 ExpMin= 1.61D-01 ExpMax= 7.00D+03 ExpMxC= 1.05D+03 IAcc=2 IRadAn=         4 AccDes= 0.00D+00
 Harris functional with IExCor=  402 and IRadAn=       4 diagonalized for initial guess.
 HarFok:  IExCor=  402 AccDes= 0.00D+00 IRadAn=         4 IDoV= 1 UseB2=F ITyADJ=14
 ICtDFT=  3500011 ScaDFX=  1.000000  1.000000  1.000000  1.000000
 FoFCou: FMM=F IPFlag=           0 FMFlag=      100000 FMFlg1=           0
         NFxFlg=           0 DoJE=T BraDBF=F KetDBF=T FulRan=T
         wScrn=  0.000000 ICntrl=       500 IOpCl=  0 I1Cent=   200000004 NGrid=           0
         NMat0=    1 NMatS0=      1 NMatT0=    0 NMatD0=    1 NMtDS0=    0 NMtDT0=    0
 Petite list used in FoFCou.
 Keep R1 ints in memory in canonical form, NReq=1107802389.
 Requested convergence on RMS density matrix=1.00D-08 within 128 cycles.
 Requested convergence on MAX density matrix=1.00D-06.
 Requested convergence on             energy=1.00D-06.
 No special actions if energy rises.
 Integral accuracy reduced to 1.0D-05 until final iterations.
 Initial convergence to 1.0D-05 achieved.  Increase integral accuracy.
 SCF Done:  E(RB3LYP) =  -643.541188672     A.U. after   12 cycles
            NFock= 12  Conv=0.86D-08     -V/T= 2.0063
 Calling FoFJK, ICntrl=      2127 FMM=F ISym2X=0 I1Cent= 0 IOpClX= 0 NMat=1 NMatS=1 NMatT=0.
 ***** Axes restored to original set *****
 -------------------------------------------------------------------
 Center     Atomic                   Forces (Hartrees/Bohr)
 Number     Number              X              Y              Z
 -------------------------------------------------------------------
      1        6           0.000066363   -0.000247077    0.002713800
      2        6           0.001667944   -0.000503184   -0.008082813
      3        8           0.000208888    0.001100035    0.002691598
      4        6          -0.004902924    0.000377381    0.003000775
      5        6           0.002334845    0.000091107    0.002430104
      6        8          -0.002648318   -0.001041725   -0.001403524
      7        6          -0.001078332   -0.003949860   -0.000398745
      8        9           0.001316989    0.000495778    0.002849878
      9        9           0.002315308   -0.000139659   -0.000594602
     10        9          -0.001815263    0.004396285   -0.002233628
     11        1           0.000980505   -0.000741106    0.000232851
     12        1          -0.000317299    0.000505770   -0.000176009
     13        1           0.000791177   -0.000798244   -0.000070177
     14        1           0.000379066    0.000023338   -0.000650576
     15        1           0.000701049    0.000431161   -0.000308931
 -------------------------------------------------------------------
 Cartesian Forces:  Max     0.008082813 RMS     0.002128361

 GradGradGradGradGradGradGradGradGradGradGradGradGradGradGradGradGradGrad
 Berny optimization.
 Using GEDIIS/GDIIS optimizer.
 FormGI is forming the generalized inverse of G from B-inverse, IUseBI=4.
 Internal  Forces:  Max     0.005179375 RMS     0.001663909
 Search for a local minimum.
 Step number   2 out of a maximum of   72
 All quantities printed in internal units (Hartrees-Bohrs-Radians)
 Mixed Optimization -- RFO/linear search
 Update second derivatives using D2CorX and points    1    2
 DE= -1.42D-03 DEPred=-2.24D-03 R= 6.32D-01
 TightC=F SS=  1.41D+00  RLast= 2.57D-01 DXNew= 5.0454D-01 7.7133D-01
 Trust test= 6.32D-01 RLast= 2.57D-01 DXMaxT set to 5.05D-01
 ITU=  1  0
 Use linear search instead of GDIIS.
     Eigenvalues ---    0.00229   0.00257   0.00583   0.00648   0.00863
     Eigenvalues ---    0.00882   0.05327   0.06626   0.07261   0.07631
     Eigenvalues ---    0.09386   0.10858   0.11334   0.12651   0.15958
     Eigenvalues ---    0.16000   0.16037   0.21705   0.22959   0.24952
     Eigenvalues ---    0.24984   0.25000   0.25000   0.25000   0.26631
     Eigenvalues ---    0.27121   0.30796   0.32989   0.33882   0.34751
     Eigenvalues ---    0.34850   0.34909   0.35063   0.35589   0.56511
     Eigenvalues ---    0.57571   0.60028   1.04658   1.06448
 RFO step:  Lambda=-1.28799938D-03 EMin= 2.29301822D-03
 Quartic linear search produced a step of -0.23543.
 Iteration  1 RMS(Cart)=  0.10528144 RMS(Int)=  0.00462002
 Iteration  2 RMS(Cart)=  0.00688194 RMS(Int)=  0.00106581
 Iteration  3 RMS(Cart)=  0.00001277 RMS(Int)=  0.00106575
 Iteration  4 RMS(Cart)=  0.00000001 RMS(Int)=  0.00106575
 Variable       Old X    -DE/DX   Delta X   Delta X   Delta X     New X
                                 (Linear)    (Quad)   (Total)
    R1        2.85441  -0.00043  -0.00793   0.01886   0.01093   2.86534
    R2        2.06508   0.00105  -0.00200   0.00735   0.00535   2.07042
    R3        2.07190   0.00032  -0.00325   0.00885   0.00560   2.07750
    R4        2.06252  -0.00056  -0.00212   0.00408   0.00196   2.06448
    R5        2.26912   0.00192  -0.00298   0.00890   0.00591   2.27503
    R6        2.95818  -0.00518  -0.00500  -0.00219  -0.00719   2.95099
    R7        2.85744   0.00070  -0.00923   0.02474   0.01552   2.87295
    R8        2.06688  -0.00005  -0.00165   0.00402   0.00237   2.06925
    R9        2.05720   0.00040   0.00031   0.00010   0.00042   2.05762
   R10        2.27077   0.00059  -0.00137   0.00389   0.00252   2.27329
   R11        2.93415   0.00097   0.00164  -0.00133   0.00031   2.93446
   R12        2.53853  -0.00177   0.00009  -0.00266  -0.00257   2.53596
   R13        2.53047  -0.00111  -0.00020  -0.00100  -0.00119   2.52928
   R14        2.50790  -0.00464   0.00095  -0.00843  -0.00747   2.50043
    A1        1.93483  -0.00022  -0.00213   0.00390   0.00177   1.93660
    A2        1.89984  -0.00058   0.00102  -0.00547  -0.00446   1.89537
    A3        1.92794  -0.00068  -0.00122   0.00014  -0.00107   1.92688
    A4        1.86865   0.00016   0.00341  -0.00856  -0.00516   1.86349
    A5        1.93192   0.00057  -0.00125   0.00604   0.00481   1.93672
    A6        1.89911   0.00079   0.00036   0.00350   0.00386   1.90297
    A7        2.17136  -0.00024   0.00645  -0.01347  -0.01169   2.15967
    A8        2.01421  -0.00131  -0.00783   0.01874   0.00615   2.02036
    A9        2.09599   0.00164   0.00176   0.00382   0.00072   2.09671
   A10        1.92341  -0.00193  -0.00877   0.01419   0.00545   1.92885
   A11        1.89413   0.00143  -0.00376   0.01349   0.00979   1.90392
   A12        1.88661   0.00006   0.00371  -0.00749  -0.00383   1.88278
   A13        1.89398  -0.00114   0.00229  -0.01771  -0.01528   1.87870
   A14        1.93796   0.00163   0.00278   0.00343   0.00620   1.94416
   A15        1.92742  -0.00005   0.00331  -0.00534  -0.00200   1.92542
   A16        2.19672  -0.00425   0.00119  -0.01591  -0.01475   2.18197
   A17        1.99800   0.00150  -0.00457   0.01627   0.01167   2.00967
   A18        2.08744   0.00275   0.00346   0.00008   0.00353   2.09096
   A19        1.90821   0.00354   0.00594  -0.00393   0.00209   1.91030
   A20        1.90308   0.00245   0.00842  -0.01368  -0.00515   1.89793
   A21        1.94150   0.00299   0.00467  -0.00275   0.00199   1.94350
   A22        1.89198  -0.00284  -0.00587   0.00587   0.00014   1.89211
   A23        1.90689  -0.00336  -0.00699   0.00690  -0.00004   1.90685
   A24        1.91151  -0.00292  -0.00694   0.00777   0.00092   1.91244
    D1       -2.39330   0.00077   0.00792   0.08272   0.09015  -2.30316
    D2        0.80984  -0.00096  -0.00523  -0.08875  -0.09348   0.71637
    D3        1.83889   0.00105   0.00440   0.09420   0.09810   1.93699
    D4       -1.24114  -0.00068  -0.00876  -0.07726  -0.08553  -1.32667
    D5       -0.24524   0.00087   0.00406   0.09322   0.09677  -0.14846
    D6        2.95791  -0.00087  -0.00909  -0.07825  -0.08685   2.87106
    D7       -1.40137   0.00205   0.02570   0.17192   0.19800  -1.20337
    D8        0.67032   0.00040   0.02142   0.16682   0.18853   0.85884
    D9        2.76107   0.00119   0.02535   0.16380   0.18949   2.95056
   D10        1.79891   0.00047   0.01314   0.00912   0.02196   1.82087
   D11       -2.41259  -0.00118   0.00886   0.00403   0.01249  -2.40010
   D12       -0.32183  -0.00040   0.01279   0.00100   0.01345  -0.30838
   D13        1.27433   0.00023  -0.00696   0.02553   0.01851   1.29284
   D14       -1.81796   0.00000  -0.00895   0.01494   0.00600  -1.81196
   D15       -0.79745   0.00031   0.00123   0.01154   0.01272  -0.78473
   D16        2.39344   0.00008  -0.00077   0.00095   0.00020   2.39364
   D17       -2.91894   0.00010  -0.00631   0.02765   0.02133  -2.89760
   D18        0.27195  -0.00013  -0.00830   0.01706   0.00882   0.28077
   D19       -1.03126  -0.00008   0.00553  -0.01199  -0.00639  -1.03765
   D20        1.03447  -0.00002   0.00714  -0.01518  -0.00802   1.02645
   D21       -3.13880  -0.00014   0.00723  -0.01625  -0.00901   3.13538
   D22        2.15628  -0.00008   0.00371  -0.02133  -0.01762   2.13866
   D23       -2.06117  -0.00002   0.00532  -0.02452  -0.01925  -2.08043
   D24        0.04874  -0.00014   0.00542  -0.02560  -0.02024   0.02851
         Item               Value     Threshold  Converged?
 Maximum Force            0.005179     0.000450     NO 
 RMS     Force            0.001664     0.000300     NO 
 Maximum Displacement     0.298714     0.001800     NO 
 RMS     Displacement     0.106303     0.001200     NO 
 Predicted change in Energy=-7.392724D-04
 GradGradGradGradGradGradGradGradGradGradGradGradGradGradGradGradGradGrad

                          Input orientation:                          
 ---------------------------------------------------------------------
 Center     Atomic      Atomic             Coordinates (Angstroms)
 Number     Number       Type             X           Y           Z
 ---------------------------------------------------------------------
      1          6           0       -2.954271   -0.838506    0.312537
      2          6           0       -2.129013    0.349026   -0.143317
      3          8           0       -2.283984    1.469114    0.269900
      4          6           0       -0.923132    0.018401   -1.078795
      5          6           0        0.155939   -0.729960   -0.312718
      6          8           0        0.088608   -1.882146    0.026509
      7          6           0        1.397178    0.117982    0.076712
      8          9           0        1.971305    0.605980   -1.033752
      9          9           0        0.995146    1.147229    0.831983
     10          9           0        2.282786   -0.602995    0.745044
     11          1           0       -1.266770   -0.632693   -1.889358
     12          1           0       -0.545700    0.956843   -1.481854
     13          1           0       -2.311143   -1.688477    0.566150
     14          1           0       -3.593448   -1.162071   -0.521349
     15          1           0       -3.586538   -0.560474    1.158963
 ---------------------------------------------------------------------
                    Distance matrix (angstroms):
                    1          2          3          4          5
     1  C    0.000000
     2  C    1.516273   0.000000
     3  O    2.403375   1.203894   0.000000
     4  C    2.606840   1.561596   2.403220   0.000000
     5  C    3.174292   2.532571   3.335955   1.520301   0.000000
     6  O    3.229568   3.150367   4.113318   2.420205   1.202971
     7  C    4.461568   3.540596   3.926046   2.594023   1.552848
     8  F    5.306631   4.203749   4.533431   2.953819   2.366470
     9  F    4.450939   3.368784   3.342490   2.933448   2.353390
    10  F    5.260161   4.599946   5.037340   3.740379   2.378751
    11  H    2.781790   2.180802   3.180364   1.094999   2.125878
    12  H    3.499190   2.160557   2.520455   1.088846   2.168982
    13  H    1.095620   2.165163   3.171574   2.746970   2.788845
    14  H    1.099367   2.137965   3.043667   2.972347   3.779967
    15  H    1.092475   2.155806   2.570274   3.526526   4.025010
                    6          7          8          9         10
     6  O    0.000000
     7  C    2.390688   0.000000
     8  F    3.295371   1.341974   0.000000
     9  F    3.263083   1.338437   2.174121   0.000000
    10  F    2.639496   1.323170   2.173190   2.174594   0.000000
    11  H    2.658708   3.394932   3.570925   3.961071   4.420442
    12  H    3.276792   2.628230   2.580546   2.786449   3.923328
    13  H    2.467291   4.153852   5.115035   4.363879   4.723818
    14  H    3.791595   5.186768   5.861317   5.312209   6.037089
    15  H    4.066444   5.144803   6.087547   4.900509   5.884055
                   11         12         13         14         15
    11  H    0.000000
    12  H    1.792380   0.000000
    13  H    2.869654   3.782701   0.000000
    14  H    2.750476   3.834206   1.761835   0.000000
    15  H    3.831292   4.303819   1.802901   1.784773   0.000000
 Stoichiometry    C5H5F3O2
 Framework group  C1[X(C5H5F3O2)]
 Deg. of freedom    39
 Full point group                 C1      NOp   1
 Largest Abelian subgroup         C1      NOp   1
 Largest concise Abelian subgroup C1      NOp   1
                         Standard orientation:                         
 ---------------------------------------------------------------------
 Center     Atomic      Atomic             Coordinates (Angstroms)
 Number     Number       Type             X           Y           Z
 ---------------------------------------------------------------------
      1          6           0       -2.849991    0.789404   -0.351572
      2          6           0       -2.020366   -0.394848    0.104887
      3          8           0       -2.165375   -1.514096   -0.314179
      4          6           0       -0.823075   -0.060654    1.050080
      5          6           0        0.256469    0.697816    0.294686
      6          8           0        0.184160    1.851009   -0.040064
      7          6           0        1.505718   -0.140574   -0.089784
      8          9           0        2.075276   -0.629730    1.022522
      9          9           0        1.115436   -1.169066   -0.852212
     10          9           0        2.391309    0.588868   -0.748890
     11          1           0       -1.176410    0.584745    1.861029
     12          1           0       -0.442474   -0.998426    1.451719
     13          1           0       -2.210543    1.644511   -0.597096
     14          1           0       -3.496933    1.105316    0.479255
     15          1           0       -3.474640    0.511044   -1.203528
 ---------------------------------------------------------------------
 Rotational constants (GHZ):           2.2784678           0.8847294           0.7727283
 Standard basis: GTBas3 (6D, 7F)
 There are   335 symmetry adapted cartesian basis functions of A   symmetry.
 There are   305 symmetry adapted basis functions of A   symmetry.
   305 basis functions,   475 primitive gaussians,   335 cartesian basis functions
    39 alpha electrons       39 beta electrons
       nuclear repulsion energy       570.1589195534 Hartrees.
 NAtoms=   15 NActive=   15 NUniq=   15 SFac= 1.00D+00 NAtFMM=   60 NAOKFM=F Big=F
 Integral buffers will be    131072 words long.
 Raffenetti 2 integral format.
 Two-electron integral symmetry is turned on.
 One-electron integrals computed using PRISM.
 NBasis=   305 RedAO= T EigKep=  7.11D-04  NBF=   305
 NBsUse=   305 1.00D-06 EigRej= -1.00D+00 NBFU=   305
 Initial guess from the checkpoint file:  "/home/artemiy/opt/gaussian/scr/Gau-16398.chk"
 B after Tr=     0.000000    0.000000    0.000000
         Rot=    0.999887   -0.014250   -0.001128    0.004758 Ang=  -1.73 deg.
 ExpMin= 1.61D-01 ExpMax= 7.00D+03 ExpMxC= 1.05D+03 IAcc=2 IRadAn=         4 AccDes= 0.00D+00
 Harris functional with IExCor=  402 and IRadAn=       4 diagonalized for initial guess.
 HarFok:  IExCor=  402 AccDes= 0.00D+00 IRadAn=         4 IDoV= 1 UseB2=F ITyADJ=14
 ICtDFT=  3500011 ScaDFX=  1.000000  1.000000  1.000000  1.000000
 FoFCou: FMM=F IPFlag=           0 FMFlag=      100000 FMFlg1=           0
         NFxFlg=           0 DoJE=T BraDBF=F KetDBF=T FulRan=T
         wScrn=  0.000000 ICntrl=       500 IOpCl=  0 I1Cent=   200000004 NGrid=           0
         NMat0=    1 NMatS0=      1 NMatT0=    0 NMatD0=    1 NMtDS0=    0 NMtDT0=    0
 Petite list used in FoFCou.
 Keep R1 ints in memory in canonical form, NReq=1107802389.
 Requested convergence on RMS density matrix=1.00D-08 within 128 cycles.
 Requested convergence on MAX density matrix=1.00D-06.
 Requested convergence on             energy=1.00D-06.
 No special actions if energy rises.
 Integral accuracy reduced to 1.0D-05 until final iterations.
 Initial convergence to 1.0D-05 achieved.  Increase integral accuracy.
 SCF Done:  E(RB3LYP) =  -643.540631460     A.U. after   13 cycles
            NFock= 13  Conv=0.32D-08     -V/T= 2.0063
 Calling FoFJK, ICntrl=      2127 FMM=F ISym2X=0 I1Cent= 0 IOpClX= 0 NMat=1 NMatS=1 NMatT=0.
 ***** Axes restored to original set *****
 -------------------------------------------------------------------
 Center     Atomic                   Forces (Hartrees/Bohr)
 Number     Number              X              Y              Z
 -------------------------------------------------------------------
      1        6          -0.003531245    0.000903068   -0.005759383
      2        6           0.011677439   -0.003993398    0.013731113
      3        8          -0.002905930   -0.000391836   -0.005577837
      4        6          -0.005298606    0.000945800   -0.000592379
      5        6          -0.001205828   -0.001885967    0.000497471
      6        8          -0.000483669    0.001900963   -0.001108314
      7        6          -0.003816487   -0.002620604   -0.002099941
      8        9           0.001161580    0.000569954    0.001972267
      9        9           0.002096266    0.000603663    0.000163425
     10        9           0.000053820    0.002550984   -0.000651478
     11        1           0.000821162   -0.000396377    0.000480967
     12        1           0.000336734    0.000246810   -0.000353066
     13        1          -0.000319083    0.001658247   -0.000763621
     14        1           0.000256161   -0.000713512    0.001469258
     15        1           0.001157684    0.000622203   -0.001408483
 -------------------------------------------------------------------
 Cartesian Forces:  Max     0.013731113 RMS     0.003402752

 GradGradGradGradGradGradGradGradGradGradGradGradGradGradGradGradGradGrad
 Berny optimization.
 Using GEDIIS/GDIIS optimizer.
 FormGI is forming the generalized inverse of G from B-inverse, IUseBI=4.
 Internal  Forces:  Max     0.004283569 RMS     0.001651177
 Search for a local minimum.
 Step number   3 out of a maximum of   72
 All quantities printed in internal units (Hartrees-Bohrs-Radians)
 Mixed Optimization -- RFO/linear search
 Update second derivatives using D2CorX and points    1    3    2
 DE=  5.57D-04 DEPred=-7.39D-04 R=-7.54D-01
 Trust test=-7.54D-01 RLast= 4.08D-01 DXMaxT set to 2.52D-01
 ITU= -1  1  0
 Use linear search instead of GDIIS.
     Eigenvalues ---    0.00228   0.00237   0.00575   0.00862   0.00878
     Eigenvalues ---    0.02820   0.05273   0.06596   0.07277   0.07656
     Eigenvalues ---    0.09381   0.10836   0.11365   0.12419   0.15903
     Eigenvalues ---    0.16002   0.16301   0.21634   0.22630   0.24765
     Eigenvalues ---    0.24991   0.24999   0.25000   0.25062   0.25499
     Eigenvalues ---    0.26990   0.27151   0.31987   0.33206   0.34769
     Eigenvalues ---    0.34853   0.34893   0.35045   0.35221   0.56188
     Eigenvalues ---    0.57478   0.58540   1.04951   1.06421
 RFO step:  Lambda=-6.16701199D-04 EMin= 2.27875323D-03
 Quartic linear search produced a step of -0.63581.
 Iteration  1 RMS(Cart)=  0.03429415 RMS(Int)=  0.00087093
 Iteration  2 RMS(Cart)=  0.00147063 RMS(Int)=  0.00008249
 Iteration  3 RMS(Cart)=  0.00000083 RMS(Int)=  0.00008249
 Variable       Old X    -DE/DX   Delta X   Delta X   Delta X     New X
                                 (Linear)    (Quad)   (Total)
    R1        2.86534  -0.00255  -0.00695  -0.00078  -0.00773   2.85761
    R2        2.07042  -0.00165  -0.00340   0.00164  -0.00175   2.06867
    R3        2.07750  -0.00105  -0.00356   0.00096  -0.00260   2.07490
    R4        2.06448  -0.00160  -0.00125  -0.00217  -0.00342   2.06106
    R5        2.27503  -0.00190  -0.00376   0.00205  -0.00171   2.27332
    R6        2.95099  -0.00428   0.00457  -0.01986  -0.01529   2.93570
    R7        2.87295  -0.00273  -0.00986   0.00244  -0.00743   2.86553
    R8        2.06925  -0.00038  -0.00151   0.00012  -0.00138   2.06787
    R9        2.05762   0.00046  -0.00027   0.00133   0.00107   2.05869
   R10        2.27329  -0.00211  -0.00160   0.00029  -0.00131   2.27198
   R11        2.93446   0.00004  -0.00020   0.00247   0.00227   2.93673
   R12        2.53596  -0.00093   0.00163  -0.00330  -0.00167   2.53429
   R13        2.52928  -0.00007   0.00076  -0.00161  -0.00085   2.52843
   R14        2.50043  -0.00168   0.00475  -0.00802  -0.00326   2.49716
    A1        1.93660  -0.00126  -0.00113  -0.00382  -0.00496   1.93164
    A2        1.89537   0.00239   0.00284   0.00222   0.00507   1.90044
    A3        1.92688  -0.00163   0.00068  -0.00654  -0.00587   1.92100
    A4        1.86349  -0.00034   0.00328  -0.00182   0.00147   1.86496
    A5        1.93672   0.00108  -0.00306   0.00528   0.00221   1.93893
    A6        1.90297  -0.00013  -0.00246   0.00502   0.00257   1.90554
    A7        2.15967   0.00080   0.00743  -0.00101   0.00631   2.16598
    A8        2.02036   0.00042  -0.00391   0.00005  -0.00399   2.01637
    A9        2.09671  -0.00075  -0.00046   0.00440   0.00381   2.10052
   A10        1.92885  -0.00067  -0.00346  -0.00616  -0.00963   1.91922
   A11        1.90392   0.00076  -0.00623   0.00884   0.00254   1.90646
   A12        1.88278   0.00036   0.00244   0.00134   0.00379   1.88658
   A13        1.87870  -0.00033   0.00972  -0.01521  -0.00550   1.87319
   A14        1.94416  -0.00011  -0.00394   0.00912   0.00519   1.94935
   A15        1.92542   0.00001   0.00127   0.00225   0.00352   1.92894
   A16        2.18197  -0.00007   0.00938  -0.01484  -0.00546   2.17651
   A17        2.00967  -0.00162  -0.00742   0.00475  -0.00268   2.00700
   A18        2.09096   0.00169  -0.00224   0.01064   0.00840   2.09936
   A19        1.91030   0.00281  -0.00133   0.01400   0.01259   1.92290
   A20        1.89793   0.00283   0.00327   0.00911   0.01230   1.91023
   A21        1.94350   0.00229  -0.00127   0.01143   0.01011   1.95360
   A22        1.89211  -0.00260  -0.00009  -0.01076  -0.01094   1.88117
   A23        1.90685  -0.00271   0.00003  -0.01260  -0.01263   1.89422
   A24        1.91244  -0.00273  -0.00059  -0.01165  -0.01229   1.90014
    D1       -2.30316  -0.00177  -0.05732  -0.01191  -0.06908  -2.37223
    D2        0.71637   0.00251   0.05943   0.02089   0.08014   0.79651
    D3        1.93699  -0.00207  -0.06237  -0.00884  -0.07105   1.86595
    D4       -1.32667   0.00222   0.05438   0.02396   0.07817  -1.24850
    D5       -0.14846  -0.00241  -0.06153  -0.01244  -0.07379  -0.22225
    D6        2.87106   0.00187   0.05522   0.02036   0.07543   2.94649
    D7       -1.20337  -0.00247  -0.12589   0.05656  -0.06949  -1.27287
    D8        0.85884  -0.00280  -0.11987   0.03972  -0.08033   0.77852
    D9        2.95056  -0.00215  -0.12048   0.04825  -0.07239   2.87817
   D10        1.82087   0.00176  -0.01396   0.08769   0.07390   1.89478
   D11       -2.40010   0.00143  -0.00794   0.07086   0.06307  -2.33702
   D12       -0.30838   0.00208  -0.00855   0.07939   0.07101  -0.23737
   D13        1.29284   0.00021  -0.01177   0.01875   0.00702   1.29986
   D14       -1.81196   0.00014  -0.00381   0.00102  -0.00276  -1.81473
   D15       -0.78473  -0.00013  -0.00809   0.02076   0.01265  -0.77208
   D16        2.39364  -0.00020  -0.00013   0.00303   0.00287   2.39651
   D17       -2.89760   0.00014  -0.01356   0.02232   0.00875  -2.88886
   D18        0.28077   0.00007  -0.00561   0.00458  -0.00104   0.27974
   D19       -1.03765  -0.00008   0.00406  -0.01945  -0.01540  -1.05305
   D20        1.02645   0.00006   0.00510  -0.01907  -0.01396   1.01248
   D21        3.13538  -0.00004   0.00573  -0.02039  -0.01466   3.12072
   D22        2.13866  -0.00011   0.01120  -0.03561  -0.02442   2.11425
   D23       -2.08043   0.00003   0.01224  -0.03523  -0.02298  -2.10341
   D24        0.02851  -0.00007   0.01287  -0.03655  -0.02368   0.00483
         Item               Value     Threshold  Converged?
 Maximum Force            0.004284     0.000450     NO 
 RMS     Force            0.001651     0.000300     NO 
 Maximum Displacement     0.101810     0.001800     NO 
 RMS     Displacement     0.034272     0.001200     NO 
 Predicted change in Energy=-5.946956D-04
 GradGradGradGradGradGradGradGradGradGradGradGradGradGradGradGradGradGrad

                          Input orientation:                          
 ---------------------------------------------------------------------
 Center     Atomic      Atomic             Coordinates (Angstroms)
 Number     Number       Type             X           Y           Z
 ---------------------------------------------------------------------
      1          6           0       -2.967556   -0.841077    0.301824
      2          6           0       -2.104739    0.337547   -0.089441
      3          8           0       -2.301054    1.467323    0.274214
      4          6           0       -0.927187    0.015573   -1.050212
      5          6           0        0.160946   -0.731186   -0.303421
      6          8           0        0.095765   -1.885174    0.027540
      7          6           0        1.409117    0.119553    0.061800
      8          9           0        1.985623    0.596392   -1.051209
      9          9           0        1.033060    1.165026    0.807303
     10          9           0        2.306128   -0.582450    0.731706
     11          1           0       -1.283480   -0.641281   -1.849599
     12          1           0       -0.560561    0.954863   -1.462688
     13          1           0       -2.347023   -1.700575    0.574871
     14          1           0       -3.568553   -1.145008   -0.565360
     15          1           0       -3.633520   -0.562271    1.119328
 ---------------------------------------------------------------------
                    Distance matrix (angstroms):
                    1          2          3          4          5
     1  C    0.000000
     2  C    1.512183   0.000000
     3  O    2.402852   1.202987   0.000000
     4  C    2.593252   1.553505   2.397748   0.000000
     5  C    3.188404   2.514221   3.350903   1.516371   0.000000
     6  O    3.247969   3.129919   4.128538   2.412638   1.202279
     7  C    4.487281   3.523858   3.953097   2.589536   1.554051
     8  F    5.332072   4.209876   4.570653   2.970153   2.377203
     9  F    4.503874   3.366697   3.389968   2.934991   2.364298
    10  F    5.297492   4.580002   5.063299   3.739945   2.386506
    11  H    2.739462   2.175024   3.161052   1.094268   2.117810
    12  H    3.483178   2.156704   2.511725   1.089411   2.169616
    13  H    1.094692   2.157302   3.182465   2.757171   2.828608
    14  H    1.097989   2.137105   3.022533   2.925550   3.761519
    15  H    1.090667   2.146618   2.570785   3.516397   4.055949
                    6          7          8          9         10
     6  O    0.000000
     7  C    2.396873   0.000000
     8  F    3.300520   1.341090   0.000000
     9  F    3.284855   1.337986   2.164437   0.000000
    10  F    2.660572   1.321443   2.161290   2.163351   0.000000
    11  H    2.640689   3.388568   3.585567   3.960837   4.421751
    12  H    3.273738   2.627059   2.604010   2.781485   3.923850
    13  H    2.510152   4.205318   5.166431   4.437415   4.788174
    14  H    3.785050   5.173939   5.841009   5.328724   6.042410
    15  H    4.104832   5.197253   6.134207   4.985768   5.952317
                   11         12         13         14         15
    11  H    0.000000
    12  H    1.794432   0.000000
    13  H    2.851540   3.794000   0.000000
    14  H    2.669189   3.776595   1.760942   0.000000
    15  H    3.787276   4.290872   1.802011   1.783810   0.000000
 Stoichiometry    C5H5F3O2
 Framework group  C1[X(C5H5F3O2)]
 Deg. of freedom    39
 Full point group                 C1      NOp   1
 Largest Abelian subgroup         C1      NOp   1
 Largest concise Abelian subgroup C1      NOp   1
                         Standard orientation:                         
 ---------------------------------------------------------------------
 Center     Atomic      Atomic             Coordinates (Angstroms)
 Number     Number       Type             X           Y           Z
 ---------------------------------------------------------------------
      1          6           0       -2.877231    0.777448   -0.332129
      2          6           0       -2.002094   -0.390396    0.064068
      3          8           0       -2.185499   -1.523404   -0.296257
      4          6           0       -0.829496   -0.052483    1.025424
      5          6           0        0.251433    0.703797    0.277753
      6          8           0        0.174069    1.855947   -0.056969
      7          6           0        1.509370   -0.134353   -0.083046
      8          9           0        2.089503   -0.601310    1.032265
      9          9           0        1.145847   -1.186244   -0.825732
     10          9           0        2.399570    0.575322   -0.753952
     11          1           0       -1.194093    0.602952    1.822227
     12          1           0       -0.453174   -0.986384    1.441390
     13          1           0       -2.265776    1.642830   -0.607059
     14          1           0       -3.482743    1.077513    0.533258
     15          1           0       -3.538948    0.488765   -1.149654
 ---------------------------------------------------------------------
 Rotational constants (GHZ):           2.2931495           0.8775571           0.7649875
 Standard basis: GTBas3 (6D, 7F)
 There are   335 symmetry adapted cartesian basis functions of A   symmetry.
 There are   305 symmetry adapted basis functions of A   symmetry.
   305 basis functions,   475 primitive gaussians,   335 cartesian basis functions
    39 alpha electrons       39 beta electrons
       nuclear repulsion energy       569.8220231415 Hartrees.
 NAtoms=   15 NActive=   15 NUniq=   15 SFac= 1.00D+00 NAtFMM=   60 NAOKFM=F Big=F
 Integral buffers will be    131072 words long.
 Raffenetti 2 integral format.
 Two-electron integral symmetry is turned on.
 One-electron integrals computed using PRISM.
 NBasis=   305 RedAO= T EigKep=  7.07D-04  NBF=   305
 NBsUse=   305 1.00D-06 EigRej= -1.00D+00 NBFU=   305
 Lowest energy guess from the checkpoint file:  "/home/artemiy/opt/gaussian/scr/Gau-16398.chk"
 B after Tr=    -0.000000   -0.000000    0.000000
         Rot=    0.999959   -0.008464   -0.001112    0.003105 Ang=  -1.04 deg.
 B after Tr=    -0.000000   -0.000000   -0.000000
         Rot=    0.999982    0.005687    0.000061   -0.001652 Ang=   0.68 deg.
 Keep R1 ints in memory in canonical form, NReq=1107802389.
 Requested convergence on RMS density matrix=1.00D-08 within 128 cycles.
 Requested convergence on MAX density matrix=1.00D-06.
 Requested convergence on             energy=1.00D-06.
 No special actions if energy rises.
 Integral accuracy reduced to 1.0D-05 until final iterations.
 Initial convergence to 1.0D-05 achieved.  Increase integral accuracy.
 SCF Done:  E(RB3LYP) =  -643.541617017     A.U. after   12 cycles
            NFock= 12  Conv=0.61D-08     -V/T= 2.0062
 Calling FoFJK, ICntrl=      2127 FMM=F ISym2X=0 I1Cent= 0 IOpClX= 0 NMat=1 NMatS=1 NMatT=0.
 ***** Axes restored to original set *****
 -------------------------------------------------------------------
 Center     Atomic                   Forces (Hartrees/Bohr)
 Number     Number              X              Y              Z
 -------------------------------------------------------------------
      1        6           0.000426620   -0.000120110    0.000300474
      2        6          -0.001032246   -0.000111125   -0.002023250
      3        8           0.000466813   -0.000542198    0.000409242
      4        6          -0.000117356    0.000787105    0.001772233
      5        6           0.001128162   -0.000712572   -0.001755320
      6        8           0.000635342    0.001176313    0.000459969
      7        6           0.001343897    0.000702412    0.000347022
      8        9          -0.001134336   -0.000473247   -0.001357564
      9        9          -0.001708768    0.000826000    0.000657386
     10        9           0.000034750   -0.001885488    0.000692138
     11        1          -0.000164700   -0.000059782    0.000398639
     12        1           0.000249111   -0.000069343   -0.000012265
     13        1          -0.000735806    0.000293233   -0.000181916
     14        1           0.000456884    0.000220232    0.000493835
     15        1           0.000151632   -0.000031428   -0.000200624
 -------------------------------------------------------------------
 Cartesian Forces:  Max     0.002023250 RMS     0.000844563

 GradGradGradGradGradGradGradGradGradGradGradGradGradGradGradGradGradGrad
 Berny optimization.
 Using GEDIIS/GDIIS optimizer.
 FormGI is forming the generalized inverse of G from B-inverse, IUseBI=4.
 Internal  Forces:  Max     0.002419178 RMS     0.000805247
 Search for a local minimum.
 Step number   4 out of a maximum of   72
 All quantities printed in internal units (Hartrees-Bohrs-Radians)
 Mixed Optimization -- En-DIIS/RFO-DIIS
 Update second derivatives using D2CorX and points    1    3    2    4
 DE= -4.28D-04 DEPred=-5.95D-04 R= 7.20D-01
 TightC=F SS=  1.41D+00  RLast= 2.80D-01 DXNew= 4.2426D-01 8.4047D-01
 Trust test= 7.20D-01 RLast= 2.80D-01 DXMaxT set to 4.24D-01
 ITU=  1 -1  1  0
 Use linear search instead of GDIIS.
     Eigenvalues ---    0.00231   0.00266   0.00605   0.00859   0.00868
     Eigenvalues ---    0.02888   0.05294   0.06646   0.07312   0.07637
     Eigenvalues ---    0.09043   0.10638   0.11119   0.12189   0.15606
     Eigenvalues ---    0.16038   0.16353   0.20164   0.22870   0.24987
     Eigenvalues ---    0.25000   0.25000   0.25031   0.25426   0.26475
     Eigenvalues ---    0.26956   0.32500   0.32819   0.33241   0.34814
     Eigenvalues ---    0.34887   0.34985   0.35196   0.35833   0.56254
     Eigenvalues ---    0.57734   0.59735   1.05694   1.06130
 RFO step:  Lambda=-1.02461633D-04 EMin= 2.30665550D-03
 Quartic linear search produced a step of -0.19873.
 Iteration  1 RMS(Cart)=  0.02137761 RMS(Int)=  0.00022421
 Iteration  2 RMS(Cart)=  0.00028785 RMS(Int)=  0.00004402
 Iteration  3 RMS(Cart)=  0.00000002 RMS(Int)=  0.00004402
 Variable       Old X    -DE/DX   Delta X   Delta X   Delta X     New X
                                 (Linear)    (Quad)   (Total)
    R1        2.85761  -0.00035  -0.00064  -0.00047  -0.00110   2.85651
    R2        2.06867  -0.00069  -0.00071  -0.00070  -0.00142   2.06725
    R3        2.07490  -0.00070  -0.00060  -0.00085  -0.00145   2.07345
    R4        2.06106  -0.00025   0.00029  -0.00111  -0.00082   2.06024
[...]
    13  H    0.000104  -0.000013   0.000086  -0.000045  -0.000047  -0.000218
    14  H   -0.000075   0.000018  -0.000074  -0.000003  -0.000368  -0.000004
    15  H    0.000022   0.000006  -0.000007   0.000005   0.000023  -0.000226
              13         14         15
     1  C    0.418839   0.386322   0.398235
     2  C   -0.035210  -0.021771  -0.015640
     3  O    0.002461   0.001754  -0.003828
     4  C   -0.001713   0.000351   0.006312
     5  C    0.005168  -0.001524  -0.000852
     6  O   -0.005213   0.000604   0.000425
     7  C    0.000104  -0.000075   0.000022
     8  F   -0.000013   0.000018   0.000006
     9  F    0.000086  -0.000074  -0.000007
    10  F   -0.000045  -0.000003   0.000005
    11  H   -0.000047  -0.000368   0.000023
    12  H   -0.000218  -0.000004  -0.000226
    13  H    0.420563  -0.017901  -0.014437
    14  H   -0.017901   0.478051  -0.014507
    15  H   -0.014437  -0.014507   0.429240
 Mulliken charges:
               1
     1  C   -0.572412
     2  C    0.419495
     3  O   -0.491890
     4  C   -0.342360
     5  C    0.421266
     6  O   -0.454249
     7  C    0.726741
     8  F   -0.276271
     9  F   -0.262284
    10  F   -0.258282
    11  H    0.225808
    12  H    0.232505
    13  H    0.227577
    14  H    0.189126
    15  H    0.215229
 Sum of Mulliken charges =  -0.00000
 Mulliken charges with hydrogens summed into heavy atoms:
               1
     1  C    0.059520
     2  C    0.419495
     3  O   -0.491890
     4  C    0.115954
     5  C    0.421266
     6  O   -0.454249
     7  C    0.726741
     8  F   -0.276271
     9  F   -0.262284
    10  F   -0.258282
 Electronic spatial extent (au):  <R**2>=           1474.0903
 Charge=             -0.0000 electrons
 Dipole moment (field-independent basis, Debye):
    X=             -1.6260    Y=              1.4314    Z=              2.1234  Tot=              3.0334
 Quadrupole moment (field-independent basis, Debye-Ang):
   XX=            -55.4925   YY=            -65.3027   ZZ=            -53.2855
   XY=             -7.1634   XZ=             -1.6888   YZ=             -0.4093
 Traceless Quadrupole moment (field-independent basis, Debye-Ang):
   XX=              2.5344   YY=             -7.2758   ZZ=              4.7414
   XY=             -7.1634   XZ=             -1.6888   YZ=             -0.4093
 Octapole moment (field-independent basis, Debye-Ang**2):
  XXX=             17.0777  YYY=             -9.8273  ZZZ=             -2.3671  XYY=             18.2312
  XXY=             13.8611  XXZ=              1.3082  XZZ=              5.1166  YZZ=             -0.5219
  YYZ=              2.6250  XYZ=              3.7568
 Hexadecapole moment (field-independent basis, Debye-Ang**3):
 XXXX=          -1112.8973 YYYY=           -396.1571 ZZZZ=           -181.7360 XXXY=            -42.1203
 XXXZ=             -7.7566 YYYX=            -19.2023 YYYZ=             -2.9812 ZZZX=             -5.8376
 ZZZY=              1.3694 XXYY=           -271.8297 XXZZ=           -215.6779 YYZZ=            -89.4249
 XXYZ=              0.0992 YYXZ=             -3.8904 ZZXY=             -1.2270
 N-N= 5.706855956863D+02 E-N=-2.658047165902D+03  KE= 6.399702352053D+02
 1\1\GINC-ARTEMIY-VIRTUALBOX\SP\RHF\GFHFB2\C5H5F3O2\ARTEMIY\13-Nov-2021
 \0\\#N Geom=AllCheck Guess=TCheck SCRF=Check HF/GFHFB2 SCF=Tight\\Titl
 e Card Required\\0,1\C,0,-2.9729940315,-0.8310916785,0.298716684\C,0,-
 2.0888229454,0.3325103333,-0.0870115285\O,0,-2.2534954855,1.4595687616
 ,0.2998300377\C,0,-0.9246147325,-0.0031232427,-1.0553150496\C,0,0.1738
 791911,-0.7397139076,-0.3133945477\O,0,0.1266865193,-1.894950222,0.013
 9845871\C,0,1.401187133,0.1305785877,0.0668135091\F,0,1.968508915,0.62
 58344742,-1.0433260374\F,0,0.9950037147,1.1612583396,0.819277486\F,0,2
 .3059755389,-0.564055365,0.7356677324\H,0,-1.2910670657,-0.6718116817,
 -1.8396575248\H,0,-0.558912328,0.9287089099,-1.4853684286\H,0,-2.37155
 13659,-1.7078757555,0.5560983582\H,0,-3.5882647943,-1.111546442,-0.565
 0957744\H,0,-3.6245527088,-0.5470367043,1.1254339436\\Version=ES64L-G1
 6RevA.03\State=1-A\HF=-640.5922691\RMSD=6.219e-09\Dipole=-0.6306006,-0
 .5540683,-0.8483225\Quadrupole=1.7232952,-5.2340827,3.5107875,5.402455
 9,1.3772327,-0.473294\PG=C01 [X(C5H5F3O2)]\\@


 ... THIS SEEMS PLAINLY ABSURD; BUT WHOEVER WISHES TO BECOME A 
 PHILOSOPHER MUST LEARN NOT TO BE FRIGHTENED BY ABSURDITIES.

                          -- BERTRAND RUSSELL
 Diagonal vibrational polarizability:
        0.0000000       0.0000000       0.0000000
 
 Temperature=              298.150000 Pressure=                      1.000000
 E(ZPE)=                     0.097540 E(Thermal)=                    0.107876
 E(QCISD(T))=             -641.873329 E(Empiric)=                   -0.201463
 E(CCSD(T))=                -0.201463 E(Empiric)=                   -0.048836
 DE(Plus)=                  -0.444785 DE(2DF)=                      -0.748536
 E(Delta-G3XP)=             -0.069820 DE(HF)=                     -643.289228
 G4(0 K)=                 -643.278893 G4 Energy=                  -643.277949
 G4 Enthalpy=             -643.327257 G4 Free Energy=    
 1\1\GINC-ARTEMIY-VIRTUALBOX\Mixed\G4\G4\C5H5F3O2\ARTEMIY\13-Nov-2021\0
 \\# g4 geom=gic\\Title Card Required\\0,1\C,0,-2.9729940315,-0.8310916
 785,0.298716684\C,0,-2.0888229454,0.3325103333,-0.0870115285\O,0,-2.25
 34954855,1.4595687616,0.2998300377\C,0,-0.9246147325,-0.0031232427,-1.
 0553150496\C,0,0.1738791911,-0.7397139076,-0.3133945477\O,0,0.12668651
 93,-1.894950222,0.0139845871\C,0,1.401187133,0.1305785877,0.0668135091
 \F,0,1.968508915,0.6258344742,-1.0433260374\F,0,0.9950037147,1.1612583
 396,0.819277486\F,0,2.3059755389,-0.564055365,0.7356677324\H,0,-1.2910
 670657,-0.6718116817,-1.8396575248\H,0,-0.558912328,0.9287089099,-1.48
 53684286\H,0,-2.3715513659,-1.7078757555,0.5560983582\H,0,-3.588264794
 3,-1.111546442,-0.5650957744\H,0,-3.6245527088,-0.5470367043,1.1254339
 436\\Version=ES64L-G16RevA.03\State=1-A\MP2/GTBas1=-641.7878259\MP4/GT
 Bas1=-641.8853539\CCSD(T)/G3Bas1=-641.8733286\MP2/GTBas2=-641.8326623\
 MP4/GTBas2=-641.9341901\MP2/GTBas3=-642.2056486\MP4/GTBas3=-642.330138
 4\HF/GTLargeXP=-640.5252724\MP2/GTLargeXP=-642.9990209\HF/GFHFB1=-640.
 5806807\HF/GFHFB2=-640.5922691\G4=-643.2892284\FreqCoord=-5.6181444895
 ,-1.5705356568,0.5644927216,-3.9473032896,0.6283534636,-0.1644279586,-
 4.2584892905,2.7581852193,0.5665966552,-1.7472686153,-0.0059020734,-1.
 9942564188,0.32858405,-1.397856696,-0.592229864,0.2394028252,-3.580936
 9393,0.0264270396,2.6478599307,0.2467577685,0.1262592335,3.7199427232,
 1.1826557555,-1.9716004693,1.8802845137,2.1944602217,1.5482100686,4.35
 76622184,-1.0659101589,1.3902105329,-2.4397631626,-1.2695400858,-3.476
 4488848,-1.0561912275,1.7550054891,-2.8069395241,-4.4815825719,-3.2274
 174326,1.0508735954,-6.7808377236,-2.1005183501,-1.0678762478,-6.84941
 19438,-1.0337495511,2.1267619246\PG=C01 [X(C5H5F3O2)]\NImag=0\\0.52276
 937,-0.06068336,0.50720009,-0.02729983,0.03332423,0.54997064,-0.132369
 88,-0.04180507,0.02562179,0.37739751,-0.04211775,-0.12296712,0.0289962
 8,-0.01699810,0.92026171,0.02314188,0.02716530,-0.09832081,-0.10858639
 ,0.16896049,0.35408652,0.02128099,-0.02513297,-0.00094442,-0.10245298,
 0.08345021,0.04530720,0.08359196,-0.00536732,-0.05545942,-0.01622710,0
 .07353004,-0.69641293,-0.19915173,-0.09431517,0.77760501,0.00371612,-0
 .00330946,0.02097945,0.04336992,-0.20705195,-0.14780066,-0.06770512,0.
 24516643,0.13130629,-0.01082958,0.00320405,0.02136688,-0.10050205,-0.0
 2195043,0.00446695,-0.00112644,0.03355954,0.02907487,0.39122304,-0.016
 35263,0.00788914,0.01161217,-0.01381828,-0.06545380,0.01579595,0.03658
 239,-0.02798622,-0.03719529,0.10244265,0.59854967,0.01414658,-0.003844
 57,0.00169666,0.03703904,0.00697656,-0.09996742,0.02230905,-0.02488293
 ,-0.00164982,0.02999618,-0.00775111,0.46472233,0.00185190,-0.00105930,
 0.00007286,-0.03626724,0.01900302,0.00089600,0.00474853,-0.00745533,-0
 .00314666,-0.13520957,0.02172129,-0.04786917,0.43267106,-0.00318660,0.
 00184078,0.00096644,0.02624199,-0.01470273,-0.01933531,-0.00415166,0.0
 0832977,0.00485090,-0.00304406,-0.08425673,0.02549179,0.03620199,0.928
 35133,0.00119272,-0.00013993,-0.00264567,-0.00304472,-0.00396154,0.031
 25239,0.00536910,-0.00992415,-0.01248106,-0.01873218,0.01565767,-0.104
 71934,0.08485926,-0.18786187,0.33136048,-0.00058633,-0.00074605,0.0011
 6923,0.00176479,-0.00230275,0.00041818,-0.00012032,0.00155437,0.000617
 44,0.01572109,0.03055729,-0.01197923,-0.09905769,-0.03098048,-0.008708
 99,0.08172960,0.00128643,-0.00073130,-0.00099017,-0.01458842,0.0029196
 5,0.01401741,0.00404779,-0.00468349,-0.00528217,0.02670840,-0.03906048
 ,0.01796806,-0.03721845,-0.73168087,0.18070358,0.03775981,0.81888104,-
 0.00043525,0.00049800,0.00051214,0.00617040,0.00182938,-0.00853072,-0.
 00294005,0.00287338,0.00446271,-0.01251249,0.02912482,0.00480919,-0.00
 542806,0.18607206,-0.12180332,0.01677019,-0.21935359,0.09692871,0.0003
 7450,0.00030814,-0.00074346,-0.00480571,0.00018160,0.00415906,0.002076
 68,-0.00135942,-0.00133714,-0.00684647,-0.01065126,-0.01208067,-0.1478
 6385,-0.02770323,-0.03120924,0.01133067,-0.00976873,-0.00211123,0.5749
 2169,-0.00005483,-0.00001920,-0.00025715,-0.00255347,0.00687740,0.0077
 9800,-0.00036382,-0.00594948,-0.00392719,0.01785654,0.01148100,0.00584
 347,-0.03680708,-0.07010760,-0.01970589,-0.02530137,-0.04359187,0.0058
 4647,0.00037474,0.55021609,0.00099823,-0.00059379,-0.00006054,-0.00314
 021,0.00607197,0.00071033,-0.00003150,-0.00264987,-0.00182285,-0.01542
 109,-0.00458278,0.00738609,-0.03085550,-0.01623960,-0.07992676,0.00432
 385,0.01471557,0.01705807,0.04740003,-0.01777404,0.51216282,-0.0002709
 2,0.00010798,0.00011102,0.00225711,-0.00185747,-0.00106799,-0.00049916
 ,0.00104505,0.00040570,-0.00186317,0.00112726,-0.00284170,-0.00336107,
 -0.01325961,0.03487212,-0.00602794,-0.00875528,-0.00419055,-0.13770609
 ,-0.04579098,0.07668369,0.13230087,0.00004989,-0.00003922,-0.00011837,
 0.00154392,-0.00132473,-0.00089571,-0.00016312,0.00118453,0.00051013,-
 0.00166954,-0.00176008,-0.00284449,-0.00825402,-0.00269744,0.02851938,
 -0.00359285,-0.00477063,-0.00437936,-0.05399021,-0.11157374,0.06652520
 ,0.04469782,0.11559876,-0.00039037,0.00032535,0.00030545,-0.00006462,-
 0.00177367,-0.00064182,0.00015269,0.00056439,0.00051808,0.00088082,0.0
 0228805,0.00174447,0.00278146,0.00476041,-0.01052911,0.00402278,0.0038
 3494,0.00164142,0.07568976,0.06445957,-0.17874586,-0.11512867,-0.10045
 129,0.29216602,-0.00006394,-0.00017440,0.00014304,0.00056901,0.0012531
 0,-0.00080348,-0.00093328,-0.00046048,-0.00009865,-0.00115744,0.001232
 18,0.00121057,0.01276080,-0.01345460,-0.00861953,-0.00325516,-0.002135
 66,0.00178749,-0.08167227,0.02317732,0.01058244,-0.00387957,0.01931356
 ,0.03815751,0.09778183,-0.00008415,0.00022341,0.00063177,0.00107305,-0
 .00404510,-0.00529136,0.00004127,0.00358923,0.00256004,-0.00801828,0.0
 0186222,0.00373339,0.02130688,-0.02684374,-0.02153099,-0.00954069,-0.0
 0475559,0.00159068,0.02211010,-0.21135017,-0.10225212,0.01076125,0.019
 61641,-0.01398014,-0.07974538,0.26636953,-0.00023614,0.00017287,0.0004
 1843,0.00075078,-0.00262081,-0.00351166,-0.00009787,0.00207888,0.00191
 317,-0.00312300,0.00204336,0.00070949,0.01314918,-0.01996540,-0.004589
 91,-0.00652533,-0.00526533,0.00026085,0.01454694,-0.09413484,-0.140795
 38,0.03367025,-0.02789551,-0.05623685,-0.05440677,0.14065970,0.1806698
 8,-0.00033205,-0.00017803,0.00041082,0.00256063,-0.00058980,-0.0035867
 6,-0.00109295,0.00098626,0.00124167,-0.00624916,-0.00556742,-0.0003386
 7,-0.02978569,0.02755923,-0.02736496,0.00383808,-0.00091839,0.00298966
 ,-0.20851920,0.06570249,-0.08887882,0.02151967,0.00339551,-0.00720826,
 -0.02005601,0.04108768,0.00193962,0.23933144,0.00009028,0.00002853,0.0
 0000144,-0.00015978,-0.00108749,-0.00075156,0.00032016,0.00092150,0.00
 050549,-0.00137594,-0.00077854,-0.00028891,-0.00644415,-0.00041040,-0.
 00052516,-0.00355401,0.00543641,-0.00384225,0.07915308,-0.12229571,0.0
 5502817,0.01252448,-0.01577745,0.04194818,0.05174109,-0.04510802,0.005
 62244,-0.13195014,0.17825607,-0.00026704,-0.00002597,0.00024127,0.0014
 8721,-0.00087924,-0.00207439,-0.00050779,0.00075284,0.00088669,-0.0029
 7783,-0.00255552,-0.00017466,-0.01805833,0.01732169,-0.00504403,0.0037
 1739,-0.00260474,0.00138764,-0.09282085,0.04789020,-0.13593547,-0.0225
 1167,0.04231564,-0.05077416,0.01148918,-0.00492438,0.02116014,0.120688
 45,-0.09717445,0.17030073,-0.00080777,-0.00078536,-0.00185013,0.011509
 51,0.01671951,0.01902567,-0.00632036,0.00175613,0.00105695,-0.06527849
 ,-0.06091245,-0.06321924,-0.01445242,-0.01391249,-0.02289604,0.0023985
 3,-0.00195720,0.00446796,-0.00162300,0.00290913,-0.00050234,-0.0003437
 5,-0.00036983,0.00040058,0.00048940,0.00073590,0.00048244,-0.00181412,
 -0.00010436,-0.00083367,0.08014736,-0.00056327,0.00029151,0.00093426,-
 0.00173105,-0.00647397,-0.00457618,0.00239923,0.00115212,-0.00148045,-
 0.06197079,-0.14725604,-0.11550747,0.00607270,0.00865136,0.01400912,0.
 00019486,0.00044684,-0.00156349,0.00154839,-0.00228200,0.00011469,0.00
 018445,0.00060392,-0.00036085,-0.00043143,0.00010994,-0.00021086,0.000
 69569,0.00034506,0.00029962,0.06044519,0.15642588,0.00014998,0.0007510
 4,0.00180479,-0.00915405,-0.01401455,-0.01415715,0.00442992,-0.0004559
 2,-0.00086305,-0.06550777,-0.11289819,-0.18293077,-0.00622582,-0.01155
 525,-0.01270777,0.00135029,0.00124263,0.00262548,-0.00051256,0.0021477
 9,-0.00019419,-0.00021666,-0.00059550,0.00030895,0.00032423,0.00000692
 ,0.00038965,-0.00070087,-0.00012628,-0.00032270,0.07082354,0.12740946,
 0.19467018,-0.00286690,0.00271995,0.00342161,-0.01198663,-0.02357083,0
 .01212648,0.00315150,0.00032241,-0.00424038,-0.07553005,-0.08368410,0.
 03261862,0.01372342,0.02249437,-0.00797219,-0.00630343,0.00411087,-0.0
 0363541,0.00042758,0.00102008,-0.00156571,-0.00213189,-0.00107399,0.00
 089227,-0.00058795,0.00001525,-0.00017821,0.00064425,-0.00029483,0.000
 68931,-0.00376414,-0.00717527,0.00485580,0.08576140,0.00103867,-0.0000
 1635,-0.00052256,0.00265866,0.00576915,-0.00439704,0.00054701,0.001193
 07,0.00017518,-0.08106384,-0.25134425,0.09340889,-0.00731670,-0.012917
 84,0.00284781,0.00361386,-0.00042413,0.00284718,0.00005528,-0.00100539
 ,0.00148169,-0.00077662,0.00084251,-0.00148794,-0.00033016,0.00018069,
 -0.00050127,-0.00022295,0.00036601,-0.00037798,-0.00441299,-0.01234186
 ,0.00786867,0.08568145,0.26938735,0.00229603,-0.00174762,-0.00097438,0
 .00781844,0.01920742,-0.00883217,-0.00273873,-0.00090870,0.00244085,0.
 03028171,0.08887445,-0.09196139,0.00964796,0.01210958,-0.00679253,-0.0
 0376137,0.00276219,0.00004863,-0.00107643,0.00194521,0.00004179,0.0002
 3228,-0.00064980,0.00022855,0.00022834,-0.00096900,-0.00025482,0.00064
 747,-0.00035556,0.00026591,-0.00721258,-0.01958872,0.01125239,-0.03699
 141,-0.10110118,0.09445578,-0.12750521,0.11940391,-0.02932849,0.017727
 34,-0.01450580,0.00513022,-0.00476479,-0.00478919,-0.00187419,-0.00138
 035,0.00142581,-0.00129267,-0.00084248,-0.00249091,0.00196616,-0.00113
 314,0.00132498,-0.00113816,-0.00063923,-0.00025788,0.00008797,0.000160
 55,0.00015798,-0.00009327,0.00011220,0.00045961,0.00019784,0.00007480,
 0.00004079,-0.00000283,0.00012023,0.00006675,-0.00014010,0.00025747,0.
 00011375,-0.00044628,0.13700182,0.12011862,-0.21550094,0.05459275,0.01
 750450,-0.02162523,0.00326172,-0.00550390,-0.00283137,0.00114103,-0.00
 187642,0.00138658,-0.00077584,-0.00069376,-0.00160414,0.00101097,0.001
 50146,0.00088434,-0.00078276,-0.00028384,-0.00023446,-0.00005233,0.000
 04571,0.00005164,-0.00001344,0.00004554,0.00008348,0.00001749,0.000037
 85,0.00004466,0.00000585,0.00001394,0.00006664,0.00007046,0.00035623,0
 .00000725,-0.00031723,-0.12855273,0.23624470,-0.02928016,0.05281245,-0
 .06115075,-0.00800445,0.00348345,-0.00308491,0.00086470,0.00054181,0.0
 0115615,0.00119275,-0.00065259,0.00053928,0.00042886,0.00170356,-0.000
 59528,-0.00097275,-0.00103170,0.00002952,0.00013049,0.00011455,0.00034
 347,-0.00007474,-0.00007866,-0.00002385,-0.00000953,-0.00025486,-0.000
 18764,-0.00002853,-0.00002378,-0.00005169,-0.00001261,0.00008701,-0.00
 029353,-0.00025836,-0.00013975,0.00004372,0.03753730,-0.05744934,0.062
 14888,-0.12749293,-0.03918615,-0.11629233,-0.01066363,-0.00319588,-0.0
 1738934,0.00013602,-0.00110559,0.00201741,0.00056586,-0.00029995,0.001
 29102,0.00024238,-0.00002023,-0.00014223,0.00010152,-0.00009209,0.0002
 1337,0.00020003,-0.00006210,-0.00000426,-0.00004370,-0.00002978,0.0000
 3684,-0.00005492,0.00003899,0.00004025,0.00003193,0.00001215,0.0000279
 5,-0.00070444,0.00017247,0.00075705,0.00018227,0.00013768,0.00039098,-
 0.01026425,-0.00473683,-0.01381352,0.13547943,-0.04113232,-0.05444690,
 -0.05568194,-0.01438040,-0.00936976,-0.02464918,-0.00001770,-0.0032155
 1,0.00504734,0.00106960,-0.00010863,0.00204526,0.00064794,-0.00039356,
 -0.00000956,0.00018141,0.00023768,-0.00037741,-0.00001375,-0.00018461,
 0.00008364,-0.00002020,-0.00000262,-0.00001142,-0.00002685,0.00006358,
 0.00002573,0.00004661,0.00003378,0.00002055,-0.00044470,0.00034891,0.0
 0036164,0.00009745,0.00001940,0.00010958,0.01556865,0.00744761,0.02107
 131,0.04325216,0.06229197,-0.11293251,-0.05157333,-0.20644216,0.005435
 00,-0.00079415,0.00804117,-0.00118436,0.00199991,-0.00030432,-0.000307
 15,-0.00058367,-0.00095609,-0.00017661,0.00083871,-0.00019159,-0.00021
 948,-0.00022307,0.00029570,0.00002821,-0.00012126,-0.00018804,0.000023
 75,0.00004046,0.00000538,0.00000536,-0.00002083,0.00001767,0.00006005,
 -0.00000791,0.00006042,0.00061317,0.00025212,-0.00003666,-0.00011346,-
 0.00005544,-0.00003587,-0.00420228,-0.00270187,-0.00696782,0.12761550,
 0.05760009,0.22373790,-0.14315125,0.04400666,0.12414141,-0.01473778,0.
 00648138,0.01676232,0.00232460,0.00209869,-0.00309794,-0.00153722,-0.0
 0380279,0.00101030,0.00084191,-0.00029372,0.00043069,-0.00040025,0.000
 19592,-0.00000787,0.00034467,0.00015123,0.00032323,-0.00011094,-0.0000
 1533,-0.00012952,-0.00005268,-0.00024147,-0.00020998,-0.00015162,0.000
 00117,-0.00011948,0.00044345,0.00009206,-0.00023298,-0.00097689,0.0002
 7688,0.00068360,-0.00892496,0.00202363,0.01230055,0.01228443,-0.004827
 90,-0.01464518,0.15380453,0.04695833,-0.06829300,-0.05726205,-0.016517
 60,0.00763493,0.02204920,0.00226030,0.00256320,-0.00171002,-0.00387149
 ,-0.00316385,0.00042790,0.00029498,-0.00155820,0.00091055,0.00065514,0
 .00089239,-0.00038310,0.00003910,0.00001974,0.00012358,-0.00003386,0.0
 0004814,-0.00010214,-0.00000384,0.00000413,-0.00002644,-0.00008459,0.0
 0002559,-0.00006413,0.00031958,-0.00008831,-0.00021293,-0.00101905,0.0
 0028439,0.00062939,0.01203428,-0.00442078,-0.02018346,0.00511514,-0.00
 272133,-0.00464976,-0.04614641,0.06877295,0.12519974,-0.05381456,-0.20
 633454,0.00430186,-0.00442964,-0.00716870,-0.00228281,0.00022276,0.001
 25836,0.00132136,0.00082269,0.00075199,-0.00007542,0.00084229,-0.00058
 652,-0.00022220,-0.00049361,0.00027400,-0.00006292,-0.00012489,-0.0000
 3349,0.00003316,-0.00000212,0.00003335,0.00000981,0.00004118,0.0000370
 0,0.00012914,-0.00000986,0.00007430,-0.00034370,0.00018173,0.00045438,
 0.00035104,-0.00004627,0.00007355,-0.00640121,0.00199253,0.00809445,0.
 01525131,-0.00563562,-0.01703569,-0.13720916,0.06045339,0.22010755\\-0
 .00000924,-0.00000009,0.00000006,-0.00000433,0.00000706,0.00000827,0.0
 0000518,-0.00000679,-0.00000020,0.00000082,-0.00000684,-0.00001134,0.0
 0000222,0.00000580,0.00000142,-0.00000292,-0.00000219,-0.00000126,-0.0
 0000076,0.00001083,0.00000716,-0.00000135,0.00000002,-0.00000249,0.000
 00340,-0.00000957,-0.00000553,-0.00000205,-0.00000244,0.00000163,0.000
 00333,0.,0.00000218,-0.00000245,0.00000326,0.00000191,0.00000206,0.000
 00166,0.00000024,0.00000446,-0.00000222,-0.00000036,0.00000165,0.00000
 148,-0.00000170\\\@
 Job cpu time:       0 days  8 hours 32 minutes  1.4 seconds.
 Elapsed time:       0 days  2 hours  8 minutes  4.8 seconds.
 File lengths (MBytes):  RWF=  64095 Int=      0 D2E=      0 Chk=     85 Scr=      1
 Normal termination of Gaussian 16 at Sat Nov 13 04:45:13 2021.
