 Entering Gaussian System, Link 0=/home/artemiy/opt/gaussian/g16/g16
 Input=1,1,1-Tricyanobutyne-3_G4.gjf
 Output=1,1,1-Tricyanobutyne-3_G4.log
 Initial command:
 /home/artemiy/opt/gaussian/g16/l1.exe "/home/artemiy/opt/gaussian/scr/Gau-15223.inp" -scrdir="/home/artemiy/opt/gaussian/scr/"
 Entering Link 1 = /home/artemiy/opt/gaussian/g16/l1.exe PID=     15226.
  
 Copyright (c) 1988,1990,1992,1993,1995,1998,2003,2009,2016,
            Gaussian, Inc.  All Rights Reserved.
  
 This is part of the Gaussian(R) 16 program.  It is based on
 the Gaussian(R) 09 system (copyright 2009, Gaussian, Inc.),
 the Gaussian(R) 03 system (copyright 2003, Gaussian, Inc.),
 the Gaussian(R) 98 system (copyright 1998, Gaussian, Inc.),
 the Gaussian(R) 94 system (copyright 1995, Gaussian, Inc.),
 the Gaussian 92(TM) system (copyright 1992, Gaussian, Inc.),
 the Gaussian 90(TM) system (copyright 1990, Gaussian, Inc.),
 the Gaussian 88(TM) system (copyright 1988, Gaussian, Inc.),
 the Gaussian 86(TM) system (copyright 1986, Carnegie Mellon
 University), and the Gaussian 82(TM) system (copyright 1983,
 Carnegie Mellon University). Gaussian is a federally registered
 trademark of Gaussian, Inc.
  
 This software contains proprietary and confidential information,
 including trade secrets, belonging to Gaussian, Inc.
  
 This software is provided under written license and may be
 used, copied, transmitted, or stored only in accord with that
 written license.
  
 The following legend is applicable only to US Government
 contracts under FAR:
  
                    RESTRICTED RIGHTS LEGEND
  
 Use, reproduction and disclosure by the US Government is
 subject to restrictions as set forth in subparagraphs (a)
 and (c) of the Commercial Computer Software - Restricted
 Rights clause in FAR 52.227-19.
  
 Gaussian, Inc.
 340 Quinnipiac St., Bldg. 40, Wallingford CT 06492
  
  
 ---------------------------------------------------------------
 Warning -- This program may not be used in any manner that
 competes with the business of Gaussian, Inc. or will provide
 assistance to any competitor of Gaussian, Inc.  The licensee
 of this program is prohibited from giving any competitor of
 Gaussian, Inc. access to this program.  By using this program,
 the user acknowledges that Gaussian, Inc. is engaged in the
 business of creating and licensing software in the field of
 computational chemistry and represents and warrants to the
 licensee that it is not a competitor of Gaussian, Inc. and that
 it will not use this program in any manner prohibited above.
 ---------------------------------------------------------------
  

 Cite this work as:
 Gaussian 16, Revision A.03,
 M. J. Frisch, G. W. Trucks, H. B. Schlegel, G. E. Scuseria, 
 M. A. Robb, J. R. Cheeseman, G. Scalmani, V. Barone, 
 G. A. Petersson, H. Nakatsuji, X. Li, M. Caricato, A. V. Marenich, 
 J. Bloino, B. G. Janesko, R. Gomperts, B. Mennucci, H. P. Hratchian, 
 J. V. Ortiz, A. F. Izmaylov, J. L. Sonnenberg, D. Williams-Young, 
 F. Ding, F. Lipparini, F. Egidi, J. Goings, B. Peng, A. Petrone, 
 T. Henderson, D. Ranasinghe, V. G. Zakrzewski, J. Gao, N. Rega, 
 G. Zheng, W. Liang, M. Hada, M. Ehara, K. Toyota, R. Fukuda, 
 J. Hasegawa, M. Ishida, T. Nakajima, Y. Honda, O. Kitao, H. Nakai, 
 T. Vreven, K. Throssell, J. A. Montgomery, Jr., J. E. Peralta, 
 F. Ogliaro, M. J. Bearpark, J. J. Heyd, E. N. Brothers, K. N. Kudin, 
 V. N. Staroverov, T. A. Keith, R. Kobayashi, J. Normand, 
 K. Raghavachari, A. P. Rendell, J. C. Burant, S. S. Iyengar, 
 J. Tomasi, M. Cossi, J. M. Millam, M. Klene, C. Adamo, R. Cammi, 
 J. W. Ochterski, R. L. Martin, K. Morokuma, O. Farkas, 
 J. B. Foresman, and D. J. Fox, Gaussian, Inc., Wallingford CT, 2016.
 
 ******************************************
 Gaussian 16:  ES64L-G16RevA.03 25-Dec-2016
                17-Jun-2022 
 ******************************************
 %mem=10GB
 %nprocshared=6
 Will use up to    6 processors via shared memory.
 -------------
 # g4 geom=gic
 -------------
 1/18=20,19=15,26=3,38=1,145=2/1,3;
 2/9=110,12=2,17=6,18=5,40=1/2;
 3/5=35,7=104,11=2,25=1,30=1,71=1,74=-5/1,2,3;
 4//1;
 5/5=2,38=5/2;
 6/7=2,8=2,9=2,10=2,28=1/1;
 7//1,2,3,16;
 1/18=20,19=15,26=3,145=2/3(2);
 2/9=110/2;
 99//99;
 2/9=110/2;
 3/5=35,7=104,11=2,25=1,30=1,71=1,74=-5/1,2,3;
 4/5=5,16=3,69=1/1;
 5/5=2,38=5/2;
 7//1,2,3,16;
 1/18=20,19=15,26=3,145=2/3(-5);
 2/9=110/2;
 6/7=2,8=2,9=2,10=2,19=2,28=1/1;
 99/9=1/99;
 -------------------
 CAS 1345980-45-1
 -------------------
 Symbolic Z-matrix:
 Charge =  0 Multiplicity = 1
 C                    -0.45681  0.        -0.03533 
 C                     0.51047  0.        -1.26209 
 H                     0.27654  -0.88604  -1.86269 
 H                     0.27654   0.88603  -1.86269 
 C                     1.89848   0.       -0.82633 
 C                    -1.84822  -0.00001  -0.52105 
 C                    -0.22121  -1.20301   0.78175 
 C                    -0.22122   1.20301   0.78175 
 C                     3.05886   0.00001  -0.45481 
 H                     4.07222   0.       -0.11977 
 N                    -0.02423   2.18105   1.41393 
 N                    -2.94405  -0.00001  -0.9619 
 N                    -0.02421  -2.18104   1.41394 
 
 Initializing the GIC definitions file.

 GradGradGradGradGradGradGradGradGradGradGradGradGradGradGradGradGradGrad
 Berny optimization.
 Initialization pass.
                           ----------------------------
                           !    Initial Parameters    !
                           ! (Angstroms and Degrees)  !
 --------------------------                            --------------------------
 ! Name  Definition              Value          Derivative Info.                !
 --------------------------------------------------------------------------------
 ! R1    R(1,2)                  1.5622         estimate D2E/DX2                !
 ! R2    R(1,6)                  1.4738         estimate D2E/DX2                !
 ! R3    R(1,7)                  1.4732         estimate D2E/DX2                !
 ! R4    R(1,8)                  1.4732         estimate D2E/DX2                !
 ! R5    R(2,3)                  1.0957         estimate D2E/DX2                !
 ! R6    R(2,4)                  1.0957         estimate D2E/DX2                !
 ! R7    R(2,5)                  1.4548         estimate D2E/DX2                !
 ! R8    R(5,9)                  1.2184         estimate D2E/DX2                !
 ! R9    R(6,12)                 1.1812         estimate D2E/DX2                !
 ! R10   R(7,13)                 1.1811         estimate D2E/DX2                !
 ! R11   R(8,11)                 1.1811         estimate D2E/DX2                !
 ! R12   R(9,10)                 1.0673         estimate D2E/DX2                !
 ! A1    A(2,1,6)              109.0114         estimate D2E/DX2                !
 ! A2    A(2,1,7)              109.6643         estimate D2E/DX2                !
 ! A3    A(2,1,8)              109.6644         estimate D2E/DX2                !
 ! A4    A(6,1,7)              109.4982         estimate D2E/DX2                !
 ! A5    A(6,1,8)              109.4982         estimate D2E/DX2                !
 ! A6    A(7,1,8)              109.49           estimate D2E/DX2                !
 ! A7    A(1,2,3)              107.3528         estimate D2E/DX2                !
 ! A8    A(1,2,4)              107.3528         estimate D2E/DX2                !
 ! A9    A(1,2,5)              110.8254         estimate D2E/DX2                !
 ! A10   A(3,2,4)              107.9322         estimate D2E/DX2                !
 ! A11   A(3,2,5)              111.5853         estimate D2E/DX2                !
 ! A12   A(4,2,5)              111.5853         estimate D2E/DX2                !
 ! A13   L(2,5,9,11,-1)        179.747          estimate D2E/DX2                !
 ! A14   L(2,5,9,11,-2)        179.7858         estimate D2E/DX2                !
 ! A15   L(1,6,12,3,-1)        177.5572         estimate D2E/DX2                !
 ! A16   L(1,6,12,3,-2)        181.3155         estimate D2E/DX2                !
 ! A17   L(1,7,13,10,-1)       179.576          estimate D2E/DX2                !
 ! A18   L(1,7,13,10,-2)       181.2997         estimate D2E/DX2                !
 ! A19   L(1,8,11,10,-1)       179.5761         estimate D2E/DX2                !
 ! A20   L(1,8,11,10,-2)       178.7002         estimate D2E/DX2                !
 ! A21   L(5,9,10,13,-1)       179.5769         estimate D2E/DX2                !
 ! A22   L(5,9,10,13,-2)       180.4069         estimate D2E/DX2                !
 ! D1    D(6,1,2,3)            -57.9116         estimate D2E/DX2                !
 ! D2    D(6,1,2,4)             57.9117         estimate D2E/DX2                !
 ! D3    D(6,1,2,5)           -180.0            estimate D2E/DX2                !
 ! D4    D(7,1,2,3)             61.9576         estimate D2E/DX2                !
 ! D5    D(7,1,2,4)            177.7809         estimate D2E/DX2                !
 ! D6    D(7,1,2,5)            -60.1308         estimate D2E/DX2                !
 ! D7    D(8,1,2,3)           -177.7809         estimate D2E/DX2                !
 ! D8    D(8,1,2,4)            -61.9576         estimate D2E/DX2                !
 ! D9    D(8,1,2,5)             60.1307         estimate D2E/DX2                !
 --------------------------------------------------------------------------------
 Trust Radius=3.00D-01 FncErr=1.00D-07 GrdErr=1.00D-06 EigMax=2.50D+02 EigMin=1.00D-04
 Number of steps in this run=     53 maximum allowed number of steps=    100.
 GradGradGradGradGradGradGradGradGradGradGradGradGradGradGradGradGradGrad

                          Input orientation:                          
 ---------------------------------------------------------------------
 Center     Atomic      Atomic             Coordinates (Angstroms)
 Number     Number       Type             X           Y           Z
 ---------------------------------------------------------------------
      1          6           0       -0.456809   -0.000001   -0.035325
      2          6           0        0.510465   -0.000001   -1.262094
      3          1           0        0.276542   -0.886035   -1.862685
      4          1           0        0.276537    0.886029   -1.862689
      5          6           0        1.898482    0.000004   -0.826334
      6          6           0       -1.848217   -0.000007   -0.521048
      7          6           0       -0.221211   -1.203010    0.781751
      8          6           0       -0.221220    1.203012    0.781748
      9          6           0        3.058858    0.000005   -0.454807
     10          1           0        4.072218    0.000000   -0.119765
     11          7           0       -0.024229    2.181047    1.413930
     12          7           0       -2.944045   -0.000007   -0.961896
     13          7           0       -0.024210   -2.181040    1.413936
 ---------------------------------------------------------------------
                    Distance matrix (angstroms):
                    1          2          3          4          5
     1  C    0.000000
     2  C    1.562236   0.000000
     3  H    2.159191   1.095667   0.000000
     4  H    2.159191   1.095667   1.772064   0.000000
     5  C    2.484571   1.454812   2.118910   2.118910   0.000000
     6  C    1.473751   2.472353   2.664514   2.664515   3.759116
     7  C    1.473211   2.481911   2.709478   3.406597   2.919979
     8  C    1.473211   2.481913   3.406598   2.709481   2.919982
     9  C    3.540604   2.673204   3.241677   3.241679   1.218403
    10  H    4.529814   3.740455   4.269659   4.269663   2.285688
    11  N    2.654136   3.493418   4.498184   3.536066   3.670497
    12  N    2.654219   3.467529   3.459573   3.459572   4.844424
    13  N    2.654135   3.493415   3.536062   4.498181   3.670491
                    6          7          8          9         10
     6  C    0.000000
     7  C    2.406585   0.000000
     8  C    2.406585   2.406022   0.000000
     9  C    4.907522   3.706099   3.706104   0.000000
    10  H    5.934019   4.549011   4.549019   1.067310   0.000000
    11  N    3.439196   3.448231   1.181106   4.213615   4.887746
    12  N    1.181180   3.449833   3.449830   6.024283   7.066621
    13  N    3.439196   1.181105   3.448229   4.213605   4.887729
                   11         12         13
    11  N    0.000000
    12  N    4.350502   0.000000
    13  N    4.362087   4.350508   0.000000
 Stoichiometry    C7H3N3
 Framework group  C1[X(C7H3N3)]
 Deg. of freedom    33
 Full point group                 C1      NOp   1
 Largest Abelian subgroup         C1      NOp   1
 Largest concise Abelian subgroup C1      NOp   1
                         Standard orientation:                         
 ---------------------------------------------------------------------
 Center     Atomic      Atomic             Coordinates (Angstroms)
 Number     Number       Type             X           Y           Z
 ---------------------------------------------------------------------
      1          6           0       -0.456809   -0.000001   -0.035325
      2          6           0        0.510465   -0.000001   -1.262094
      3          1           0        0.276542   -0.886035   -1.862685
      4          1           0        0.276537    0.886029   -1.862689
      5          6           0        1.898482    0.000004   -0.826334
      6          6           0       -1.848217   -0.000007   -0.521048
      7          6           0       -0.221211   -1.203010    0.781751
      8          6           0       -0.221220    1.203012    0.781748
      9          6           0        3.058858    0.000005   -0.454807
     10          1           0        4.072218    0.000000   -0.119765
     11          7           0       -0.024229    2.181047    1.413930
     12          7           0       -2.944045   -0.000007   -0.961896
     13          7           0       -0.024210   -2.181040    1.413936
 ---------------------------------------------------------------------
 Rotational constants (GHZ):           1.7242587           1.0868645           0.9890608
 Standard basis: GTBas3 (6D, 7F)
 There are   325 symmetry adapted cartesian basis functions of A   symmetry.
 There are   295 symmetry adapted basis functions of A   symmetry.
   295 basis functions,   461 primitive gaussians,   325 cartesian basis functions
    33 alpha electrons       33 beta electrons
       nuclear repulsion energy       403.7794446185 Hartrees.
 NAtoms=   13 NActive=   13 NUniq=   13 SFac= 1.00D+00 NAtFMM=   60 NAOKFM=F Big=F
 Integral buffers will be    131072 words long.
 Raffenetti 2 integral format.
 Two-electron integral symmetry is turned on.
 One-electron integrals computed using PRISM.
 NBasis=   295 RedAO= T EigKep=  1.03D-04  NBF=   295
 NBsUse=   295 1.00D-06 EigRej= -1.00D+00 NBFU=   295
 ExpMin= 1.61D-01 ExpMax= 4.17D+03 ExpMxC= 6.27D+02 IAcc=3 IRadAn=         5 AccDes= 0.00D+00
 Harris functional with IExCor=  402 and IRadAn=       5 diagonalized for initial guess.
 HarFok:  IExCor=  402 AccDes= 0.00D+00 IRadAn=         5 IDoV= 1 UseB2=F ITyADJ=14
 ICtDFT=  3500011 ScaDFX=  1.000000  1.000000  1.000000  1.000000
 FoFCou: FMM=F IPFlag=           0 FMFlag=      100000 FMFlg1=           0
         NFxFlg=           0 DoJE=T BraDBF=F KetDBF=T FulRan=T
         wScrn=  0.000000 ICntrl=       500 IOpCl=  0 I1Cent=   200000004 NGrid=           0
         NMat0=    1 NMatS0=      1 NMatT0=    0 NMatD0=    1 NMtDS0=    0 NMtDT0=    0
 Petite list used in FoFCou.
 Keep R1 ints in memory in canonical form, NReq=970443945.
 Requested convergence on RMS density matrix=1.00D-08 within 128 cycles.
 Requested convergence on MAX density matrix=1.00D-06.
 Requested convergence on             energy=1.00D-06.
 No special actions if energy rises.
 Integral accuracy reduced to 1.0D-05 until final iterations.
 Initial convergence to 1.0D-05 achieved.  Increase integral accuracy.
 SCF Done:  E(RB3LYP) =  -432.658398958     A.U. after   14 cycles
            NFock= 14  Conv=0.72D-08     -V/T= 2.0084

 **********************************************************************

            Population analysis using the SCF density.

 **********************************************************************

 Orbital symmetries:
       Occupied  (A) (A) (A) (A) (A) (A) (A) (A) (A) (A) (A) (A)
                 (A) (A) (A) (A) (A) (A) (A) (A) (A) (A) (A) (A)
                 (A) (A) (A) (A) (A) (A) (A) (A) (A)
       Virtual   (A) (A) (A) (A) (A) (A) (A) (A) (A) (A) (A) (A)
                 (A) (A) (A) (A) (A) (A) (A) (A) (A) (A) (A) (A)
                 (A) (A) (A) (A) (A) (A) (A) (A) (A) (A) (A) (A)
                 (A) (A) (A) (A) (A) (A) (A) (A) (A) (A) (A) (A)
                 (A) (A) (A) (A) (A) (A) (A) (A) (A) (A) (A) (A)
                 (A) (A) (A) (A) (A) (A) (A) (A) (A) (A) (A) (A)
                 (A) (A) (A) (A) (A) (A) (A) (A) (A) (A) (A) (A)
                 (A) (A) (A) (A) (A) (A) (A) (A) (A) (A) (A) (A)
                 (A) (A) (A) (A) (A) (A) (A) (A) (A) (A) (A) (A)
                 (A) (A) (A) (A) (A) (A) (A) (A) (A) (A) (A) (A)
                 (A) (A) (A) (A) (A) (A) (A) (A) (A) (A) (A) (A)
                 (A) (A) (A) (A) (A) (A) (A) (A) (A) (A) (A) (A)
                 (A) (A) (A) (A) (A) (A) (A) (A) (A) (A) (A) (A)
                 (A) (A) (A) (A) (A) (A) (A) (A) (A) (A) (A) (A)
                 (A) (A) (A) (A) (A) (A) (A) (A) (A) (A) (A) (A)
                 (A) (A) (A) (A) (A) (A) (A) (A) (A) (A) (A) (A)
                 (A) (A) (A) (A) (A) (A) (A) (A) (A) (A) (A) (A)
                 (A) (A) (A) (A) (A) (A) (A) (A) (A) (A) (A) (A)
                 (A) (A) (A) (A) (A) (A) (A) (A) (A) (A) (A) (A)
                 (A) (A) (A) (A) (A) (A) (A) (A) (A) (A) (A) (A)
                 (A) (A) (A) (A) (A) (A) (A) (A) (A) (A) (A) (A)
                 (A) (A) (A) (A) (A) (A) (A) (A) (A) (A)
 The electronic state is 1-A.
 Alpha  occ. eigenvalues --  -14.39073 -14.38651 -14.38648 -10.36233 -10.28483
 Alpha  occ. eigenvalues --  -10.28126 -10.27748 -10.27747 -10.22728 -10.22212
 Alpha  occ. eigenvalues --   -0.97271  -0.93790  -0.93499  -0.89681  -0.80759
 Alpha  occ. eigenvalues --   -0.73921  -0.64564  -0.64260  -0.56849  -0.52763
 Alpha  occ. eigenvalues --   -0.49855  -0.48544  -0.41347  -0.40920  -0.40878
 Alpha  occ. eigenvalues --   -0.38889  -0.38750  -0.37136  -0.36732  -0.36592
 Alpha  occ. eigenvalues --   -0.36315  -0.30880  -0.30464
 Alpha virt. eigenvalues --   -0.05393  -0.05148  -0.04680  -0.01412  -0.00134
 Alpha virt. eigenvalues --    0.00858   0.01924   0.05542   0.06475   0.09800
 Alpha virt. eigenvalues --    0.10705   0.11123   0.13819   0.17646   0.19654
 Alpha virt. eigenvalues --    0.21103   0.30834   0.31144   0.33403   0.36947
 Alpha virt. eigenvalues --    0.38113   0.42461   0.44491   0.44759   0.47083
 Alpha virt. eigenvalues --    0.47557   0.48526   0.49140   0.52530   0.54604
 Alpha virt. eigenvalues --    0.56711   0.57506   0.58711   0.58923   0.60797
 Alpha virt. eigenvalues --    0.61291   0.62245   0.62556   0.65011   0.66082
 Alpha virt. eigenvalues --    0.66144   0.67262   0.68421   0.69705   0.69881
 Alpha virt. eigenvalues --    0.71152   0.72097   0.72430   0.72804   0.73145
 Alpha virt. eigenvalues --    0.74118   0.75754   0.78175   0.79455   0.81751
 Alpha virt. eigenvalues --    0.82179   0.82650   0.83080   0.85665   0.87159
 Alpha virt. eigenvalues --    0.88479   0.88677   0.91046   0.94193   0.95676
 Alpha virt. eigenvalues --    0.97305   1.03648   1.05560   1.06028   1.08398
 Alpha virt. eigenvalues --    1.10182   1.12485   1.16566   1.19293   1.19870
 Alpha virt. eigenvalues --    1.23973   1.23974   1.25836   1.27412   1.30639
 Alpha virt. eigenvalues --    1.31513   1.31797   1.32563   1.33384   1.36563
 Alpha virt. eigenvalues --    1.37595   1.38874   1.43892   1.45037   1.48521
 Alpha virt. eigenvalues --    1.55024   1.58200   1.58416   1.61602   1.61744
 Alpha virt. eigenvalues --    1.68387   1.68942   1.69803   1.73391   1.75914
 Alpha virt. eigenvalues --    1.77093   1.81471   1.84168   1.84286   1.86367
 Alpha virt. eigenvalues --    1.89535   1.92659   2.00344   2.08350   2.21815
 Alpha virt. eigenvalues --    2.23497   2.30514   2.34059   2.34375   2.42483
 Alpha virt. eigenvalues --    2.47826   2.50298   2.52083   2.56638   2.57631
 Alpha virt. eigenvalues --    2.60056   2.63855   2.65057   2.67646   2.70323
 Alpha virt. eigenvalues --    2.70809   2.72446   2.74429   2.74710   2.75753
 Alpha virt. eigenvalues --    2.78983   2.80250   2.80739   2.82074   2.83194
 Alpha virt. eigenvalues --    2.83232   2.83641   2.86702   2.87106   2.91050
 Alpha virt. eigenvalues --    2.97620   2.98741   3.03724   3.03903   3.04139
 Alpha virt. eigenvalues --    3.11151   3.12778   3.17247   3.18930   3.19359
 Alpha virt. eigenvalues --    3.24240   3.26311   3.28735   3.37498   3.39240
 Alpha virt. eigenvalues --    3.42064   3.43702   3.46221   3.48915   3.53296
 Alpha virt. eigenvalues --    3.55892   3.59827   3.61071   3.61709   3.61979
 Alpha virt. eigenvalues --    3.62170   3.62520   3.62706   3.63531   3.64801
 Alpha virt. eigenvalues --    3.69515   3.69594   3.71153   3.74271   3.77259
 Alpha virt. eigenvalues --    3.77357   3.81759   3.83003   3.85118   3.87992
 Alpha virt. eigenvalues --    3.90954   3.92195   3.94927   3.96469   3.99618
 Alpha virt. eigenvalues --    4.08138   4.09035   4.09762   4.11786   4.12537
 Alpha virt. eigenvalues --    4.12734   4.12950   4.13742   4.16948   4.17810
 Alpha virt. eigenvalues --    4.18951   4.21256   4.23372   4.23578   4.25401
 Alpha virt. eigenvalues --    4.25864   4.29372   4.31040   4.31674   4.32956
 Alpha virt. eigenvalues --    4.34309   4.35553   4.40634   4.40693   4.40971
 Alpha virt. eigenvalues --    4.43184   4.48447   4.49196   4.53619   4.59382
 Alpha virt. eigenvalues --    4.59518   4.69726   4.70099   4.73257   4.74833
 Alpha virt. eigenvalues --    4.75442   4.76529   4.81175   4.81980   4.82729
 Alpha virt. eigenvalues --    4.83945   4.89273   4.98208   4.99913   5.00967
 Alpha virt. eigenvalues --    5.01155   5.06291   5.18841   5.22003   5.22955
 Alpha virt. eigenvalues --    5.23148   5.27600   5.31203   5.32005   5.32299
 Alpha virt. eigenvalues --    5.34949   5.37212   5.42799   6.06494   6.14302
 Alpha virt. eigenvalues --    6.23632   6.24762   6.71806   7.68996   9.65134
 Alpha virt. eigenvalues --   10.28877  10.90587  10.92245  11.11477  11.33574
 Alpha virt. eigenvalues --   11.40419  11.41152  12.21808  13.12260  17.67361
 Alpha virt. eigenvalues --   18.87990  21.15928
          Condensed to atoms (all electrons):
               1          2          3          4          5          6
     1  C    4.824496   0.371154  -0.021370  -0.021370  -0.049445   0.386152
     2  C    0.371154   5.033573   0.354574   0.354573   0.421910  -0.037812
     3  H   -0.021370   0.354574   0.534118  -0.029626  -0.016508  -0.000929
     4  H   -0.021370   0.354573  -0.029626   0.534118  -0.016508  -0.000929
     5  C   -0.049445   0.421910  -0.016508  -0.016508   4.410736   0.004660
     6  C    0.386152  -0.037812  -0.000929  -0.000929   0.004660   4.431477
     7  C    0.374898  -0.037795  -0.007070   0.004775   0.003980  -0.033644
     8  C    0.374898  -0.037795   0.004775  -0.007070   0.003980  -0.033644
     9  C   -0.004844  -0.044583  -0.000662  -0.000662   0.953216   0.000012
    10  H    0.000032   0.000704  -0.000035  -0.000035   0.007451   0.000001
    11  N   -0.008325  -0.002288  -0.000046   0.000506  -0.002062  -0.005054
    12  N   -0.000880  -0.002360   0.000363   0.000363   0.000082   0.962575
    13  N   -0.008325  -0.002288   0.000506  -0.000046  -0.002062  -0.005054
               7          8          9         10         11         12
     1  C    0.374898   0.374898  -0.004844   0.000032  -0.008325  -0.000880
     2  C   -0.037795  -0.037795  -0.044583   0.000704  -0.002288  -0.002360
     3  H   -0.007070   0.004775  -0.000662  -0.000035  -0.000046   0.000363
     4  H    0.004775  -0.007070  -0.000662  -0.000035   0.000506   0.000363
     5  C    0.003980   0.003980   0.953216   0.007451  -0.002062   0.000082
     6  C   -0.033644  -0.033644   0.000012   0.000001  -0.005054   0.962575
     7  C    4.430836  -0.053757   0.003281   0.000013  -0.003951  -0.003984
     8  C   -0.053757   4.430835   0.003281   0.000013   0.961144  -0.003984
     9  C    0.003281   0.003281   5.108582   0.364106  -0.000421  -0.000000
    10  H    0.000013   0.000013   0.364106   0.400760   0.000003   0.000000
    11  N   -0.003951   0.961144  -0.000421   0.000003   6.379676  -0.000037
    12  N   -0.003984  -0.003984  -0.000000   0.000000  -0.000037   6.366273
    13  N    0.961145  -0.003951  -0.000421   0.000003  -0.000034  -0.000037
              13
     1  C   -0.008325
     2  C   -0.002288
     3  H    0.000506
     4  H   -0.000046
     5  C   -0.002062
     6  C   -0.005054
     7  C    0.961145
     8  C   -0.003951
     9  C   -0.000421
    10  H    0.000003
    11  N   -0.000034
    12  N   -0.000037
    13  N    6.379674
 Mulliken charges:
               1
     1  C   -0.217072
     2  C   -0.371567
     3  H    0.181910
     4  H    0.181910
     5  C    0.280572
     6  C    0.332191
     7  C    0.361274
     8  C    0.361275
     9  C   -0.380885
    10  H    0.226984
    11  N   -0.319109
    12  N   -0.318375
    13  N   -0.319109
 Sum of Mulliken charges =  -0.00000
 Mulliken charges with hydrogens summed into heavy atoms:
               1
     1  C   -0.217072
     2  C   -0.007747
     5  C    0.280572
     6  C    0.332191
     7  C    0.361274
     8  C    0.361275
     9  C   -0.153900
    11  N   -0.319109
    12  N   -0.318375
    13  N   -0.319109
 Electronic spatial extent (au):  <R**2>=           1312.3290
 Charge=             -0.0000 electrons
 Dipole moment (field-independent basis, Debye):
    X=              2.5876    Y=             -0.0000    Z=             -2.6928  Tot=              3.7345
 Quadrupole moment (field-independent basis, Debye-Ang):
   XX=            -56.7118   YY=            -65.8539   ZZ=            -57.9946
   XY=              0.0000   XZ=             -2.7070   YZ=              0.0000
 Traceless Quadrupole moment (field-independent basis, Debye-Ang):
   XX=              3.4750   YY=             -5.6671   ZZ=              2.1922
   XY=              0.0000   XZ=             -2.7070   YZ=              0.0000
 Octapole moment (field-independent basis, Debye-Ang**2):
  XXX=             71.8891  YYY=             -0.0002  ZZZ=            -10.1464  XYY=             -4.3597
  XXY=              0.0000  XXZ=             17.6145  XZZ=              0.3392  YZZ=              0.0000
  YYZ=            -21.4344  XYZ=              0.0001
 Hexadecapole moment (field-independent basis, Debye-Ang**3):
 XXXX=           -842.0730 YYYY=           -545.2769 ZZZZ=           -373.5442 XXXY=             -0.0005
 XXXZ=            -22.6051 YYYX=              0.0003 YYYZ=             -0.0001 ZZZX=              0.3413
 ZZZY=              0.0001 XXYY=           -239.8788 XXZZ=           -240.2482 YYZZ=           -168.3198
 XXYZ=             -0.0001 YYXZ=              1.0737 ZZXY=              0.0001
 N-N= 4.037794446185D+02 E-N=-1.811628861398D+03  KE= 4.290543100925D+02
 Calling FoFJK, ICntrl=      2127 FMM=F ISym2X=0 I1Cent= 0 IOpClX= 0 NMat=1 NMatS=1 NMatT=0.
 ***** Axes restored to original set *****
 -------------------------------------------------------------------
 Center     Atomic                   Forces (Hartrees/Bohr)
 Number     Number              X              Y              Z
 -------------------------------------------------------------------
      1        6          -0.003412202   -0.000000244    0.003392150
      2        6           0.007166711    0.000000341   -0.004156420
      3        1           0.000462384    0.000724513    0.000116273
      4        1           0.000462340   -0.000724526    0.000116256
      5        6           0.034745478   -0.000000133    0.007214456
      6        6          -0.059115292    0.000000293   -0.023311332
      7        6           0.009838474   -0.053382228    0.035058337
      8        6           0.009838107    0.053383847    0.035058781
      9        6          -0.032444143   -0.000000225   -0.009684099
     10        1          -0.002896891    0.000000193   -0.001127908
     11        7          -0.010383980   -0.050273466   -0.032623632
     12        7           0.056123306   -0.000000133    0.022570049
     13        7          -0.010384291    0.050271768   -0.032622912
 -------------------------------------------------------------------
 Cartesian Forces:  Max     0.059115292 RMS     0.025798082

 GradGradGradGradGradGradGradGradGradGradGradGradGradGradGradGradGradGrad
 Berny optimization.
 FormGI is forming the generalized inverse of G from B-inverse, IUseBI=4.
 Internal  Forces:  Max     0.060823281 RMS     0.017152206
 Search for a local minimum.
 Step number   1 out of a maximum of   53
 All quantities printed in internal units (Hartrees-Bohrs-Radians)
 Mixed Optimization -- RFO/linear search
 Second derivative matrix not updated -- first step.
 ITU=  0
     Eigenvalues ---    0.00230   0.00535   0.00535   0.04491   0.04491
     Eigenvalues ---    0.04586   0.04586   0.04587   0.04587   0.04587
     Eigenvalues ---    0.04587   0.05613   0.06370   0.08795   0.08909
     Eigenvalues ---    0.16000   0.16000   0.22556   0.25000   0.25000
     Eigenvalues ---    0.25000   0.26637   0.34166   0.34166   0.35295
     Eigenvalues ---    0.35359   0.35359   0.37572   0.37621   0.96095
     Eigenvalues ---    1.14878   1.14920   1.14921
 RFO step:  Lambda=-1.17858911D-02 EMin= 2.30000000D-03
 Linear search not attempted -- first point.
 Iteration  1 RMS(Cart)=  0.03736399 RMS(Int)=  0.00025331
 Iteration  2 RMS(Cart)=  0.00042530 RMS(Int)=  0.00002888
 Iteration  3 RMS(Cart)=  0.00000011 RMS(Int)=  0.00002888
 Variable       Old X    -DE/DX   Delta X   Delta X   Delta X     New X
                                 (Linear)    (Quad)   (Total)
    R1        2.95220   0.01055   0.00000   0.03793   0.03793   2.99013
    R2        2.78499   0.00307   0.00000   0.00841   0.00841   2.79340
    R3        2.78397   0.00380   0.00000   0.01041   0.01041   2.79437
    R4        2.78397   0.00380   0.00000   0.01041   0.01041   2.79437
    R5        2.07051  -0.00075   0.00000  -0.00212  -0.00212   2.06839
    R6        2.07051  -0.00075   0.00000  -0.00212  -0.00212   2.06839
    R7        2.74920  -0.00165   0.00000  -0.00424  -0.00424   2.74495
    R8        2.30245  -0.03696   0.00000  -0.03799  -0.03799   2.26446
    R9        2.23211  -0.06049   0.00000  -0.05212  -0.05212   2.17998
   R10        2.23197  -0.06082   0.00000  -0.05239  -0.05239   2.17958
   R11        2.23197  -0.06082   0.00000  -0.05239  -0.05239   2.17958
   R12        2.01692  -0.00311   0.00000  -0.00801  -0.00801   2.00891
    A1        1.90261  -0.00047   0.00000  -0.00437  -0.00435   1.89826
    A2        1.91400   0.00198   0.00000   0.00885   0.00881   1.92281
    A3        1.91401   0.00198   0.00000   0.00885   0.00881   1.92281
    A4        1.91110  -0.00126   0.00000  -0.00736  -0.00734   1.90376
    A5        1.91110  -0.00126   0.00000  -0.00736  -0.00734   1.90376
    A6        1.91096  -0.00098   0.00000   0.00131   0.00120   1.91217
    A7        1.87366  -0.00048   0.00000  -0.00178  -0.00182   1.87184
    A8        1.87366  -0.00048   0.00000  -0.00178  -0.00182   1.87184
    A9        1.93427   0.00594   0.00000   0.02602   0.02596   1.96023
   A10        1.88377  -0.00045   0.00000  -0.00653  -0.00655   1.87723
   A11        1.94753  -0.00228   0.00000  -0.00811  -0.00817   1.93936
   A12        1.94753  -0.00228   0.00000  -0.00811  -0.00817   1.93936
   A13        3.13718  -0.00060   0.00000  -0.01055  -0.01055   3.12663
   A14        3.13785  -0.00045   0.00000  -0.00802  -0.00802   3.12983
   A15        3.09896  -0.00002   0.00000  -0.00027  -0.00027   3.09869
   A16        3.16455   0.00001   0.00000   0.00009   0.00009   3.16465
   A17        3.13419   0.00054   0.00000   0.00931   0.00931   3.14350
   A18        3.16428   0.00025   0.00000   0.00432   0.00432   3.16859
   A19        3.13419   0.00054   0.00000   0.00930   0.00930   3.14350
   A20        3.11891  -0.00025   0.00000  -0.00431  -0.00431   3.11460
   A21        3.13421   0.00026   0.00000   0.01513   0.01513   3.14934
   A22        3.14869  -0.00017   0.00000  -0.00999  -0.00999   3.13871
    D1       -1.01075   0.00050   0.00000   0.00467   0.00468  -1.00606
    D2        1.01075  -0.00050   0.00000  -0.00468  -0.00469   1.00606
    D3       -3.14159  -0.00000   0.00000  -0.00001  -0.00001   3.14159
    D4        1.08136  -0.00013   0.00000  -0.00164  -0.00166   1.07971
    D5        3.10286  -0.00113   0.00000  -0.01099  -0.01103   3.09183
    D6       -1.04948  -0.00063   0.00000  -0.00632  -0.00635  -1.05583
    D7       -3.10286   0.00113   0.00000   0.01098   0.01103  -3.09183
    D8       -1.08136   0.00013   0.00000   0.00163   0.00165  -1.07971
    D9        1.04948   0.00063   0.00000   0.00631   0.00634   1.05582
         Item               Value     Threshold  Converged?
 Maximum Force            0.060823     0.000450     NO 
 RMS     Force            0.017152     0.000300     NO 
 Maximum Displacement     0.103758     0.001800     NO 
 RMS     Displacement     0.037153     0.001200     NO 
 Predicted change in Energy=-5.974135D-03
 GradGradGradGradGradGradGradGradGradGradGradGradGradGradGradGradGradGrad

                          Input orientation:                          
 ---------------------------------------------------------------------
 Center     Atomic      Atomic             Coordinates (Angstroms)
 Number     Number       Type             X           Y           Z
 ---------------------------------------------------------------------
      1          6           0       -0.457030   -0.000167   -0.018650
      2          6           0        0.531879   -0.000454   -1.253864
      3          1           0        0.297715   -0.883384   -1.856885
      4          1           0        0.298267    0.882644   -1.856852
      5          6           0        1.925575   -0.000896   -0.844523
      6          6           0       -1.846804    0.000282   -0.522253
      7          6           0       -0.242387   -1.208275    0.806585
      8          6           0       -0.241623    1.207770    0.806636
      9          6           0        3.068826   -0.000588   -0.485503
     10          1           0        4.085433    0.002791   -0.174672
     11          7           0       -0.076791    2.167166    1.425249
     12          7           0       -2.911763    0.000903   -0.965704
     13          7           0       -0.078135   -2.167797    1.425158
 ---------------------------------------------------------------------
                    Distance matrix (angstroms):
                    1          2          3          4          5
     1  C    0.000000
     2  C    1.582306   0.000000
     3  H    2.174585   1.094546   0.000000
     4  H    2.174584   1.094546   1.766028   0.000000
     5  C    2.521680   1.452566   2.110353   2.110352   0.000000
     6  C    1.478204   2.488652   2.676018   2.676013   3.786119
     7  C    1.478719   2.510731   2.737031   3.429016   2.980601
     8  C    1.478719   2.510731   3.429017   2.737034   2.980595
     9  C    3.556629   2.650751   3.215443   3.215073   1.198298
    10  H    4.545142   3.713814   4.238155   4.236331   2.261350
    11  N    2.631874   3.499529   4.496500   3.544412   3.723147
    12  N    2.631089   3.455678   3.446290   3.446143   4.838856
    13  N    2.631874   3.499521   3.544402   4.496494   3.723139
                    6          7          8          9         10
     6  C    0.000000
     7  C    2.408439   0.000000
     8  C    2.408439   2.416046   0.000000
     9  C    4.915767   3.753949   3.753508   0.000000
    10  H    5.942411   4.599953   4.597646   1.063070   0.000000
    11  N    3.408973   3.435662   1.153383   4.271421   4.956649
    12  N    1.153598   3.424718   3.424525   5.999837   7.041768
    13  N    3.408983   1.153383   3.435659   4.272094   4.960464
                   11         12         13
    11  N    0.000000
    12  N    4.294930   0.000000
    13  N    4.334963   4.295222   0.000000
 Stoichiometry    C7H3N3
 Framework group  C1[X(C7H3N3)]
 Deg. of freedom    33
 Full point group                 C1      NOp   1
 Largest Abelian subgroup         C1      NOp   1
 Largest concise Abelian subgroup C1      NOp   1
                         Standard orientation:                         
 ---------------------------------------------------------------------
 Center     Atomic      Atomic             Coordinates (Angstroms)
 Number     Number       Type             X           Y           Z
 ---------------------------------------------------------------------
      1          6           0       -0.450939   -0.000033   -0.033750
      2          6           0        0.569220   -0.000039   -1.243282
      3          1           0        0.350593   -0.882866   -1.852258
      4          1           0        0.351051    0.883162   -1.851879
      5          6           0        1.951997   -0.000491   -0.798451
      6          6           0       -1.827386    0.000445   -0.572712
      7          6           0       -0.257396   -1.208287    0.796476
      8          6           0       -0.256761    1.207759    0.797000
      9          6           0        3.085698   -0.000196   -0.410325
     10          1           0        4.094028    0.003173   -0.073609
     11          7           0       -0.107846    2.167045    1.419805
     12          7           0       -2.880663    0.001099   -1.043240
     13          7           0       -0.108958   -2.167918    1.418865
 ---------------------------------------------------------------------
 Rotational constants (GHZ):           1.7188178           1.0814045           0.9916319
 Standard basis: GTBas3 (6D, 7F)
 There are   325 symmetry adapted cartesian basis functions of A   symmetry.
 There are   295 symmetry adapted basis functions of A   symmetry.
   295 basis functions,   461 primitive gaussians,   325 cartesian basis functions
    33 alpha electrons       33 beta electrons
       nuclear repulsion energy       404.6768882501 Hartrees.
 NAtoms=   13 NActive=   13 NUniq=   13 SFac= 1.00D+00 NAtFMM=   60 NAOKFM=F Big=F
 Integral buffers will be    131072 words long.
 Raffenetti 2 integral format.
 Two-electron integral symmetry is turned on.
 One-electron integrals computed using PRISM.
 NBasis=   295 RedAO= T EigKep=  9.95D-05  NBF=   295
 NBsUse=   295 1.00D-06 EigRej= -1.00D+00 NBFU=   295
 Initial guess from the checkpoint file:  "/home/artemiy/opt/gaussian/scr/Gau-15226.chk"
 B after Tr=     0.000000   -0.000000   -0.000000
         Rot=    0.999894   -0.000120    0.014591    0.000086 Ang=  -1.67 deg.
 ExpMin= 1.61D-01 ExpMax= 4.17D+03 ExpMxC= 6.27D+02 IAcc=2 IRadAn=         4 AccDes= 0.00D+00
 Harris functional with IExCor=  402 and IRadAn=       4 diagonalized for initial guess.
 HarFok:  IExCor=  402 AccDes= 0.00D+00 IRadAn=         4 IDoV= 1 UseB2=F ITyADJ=14
 ICtDFT=  3500011 ScaDFX=  1.000000  1.000000  1.000000  1.000000
 FoFCou: FMM=F IPFlag=           0 FMFlag=      100000 FMFlg1=           0
         NFxFlg=           0 DoJE=T BraDBF=F KetDBF=T FulRan=T
         wScrn=  0.000000 ICntrl=       500 IOpCl=  0 I1Cent=   200000004 NGrid=           0
         NMat0=    1 NMatS0=      1 NMatT0=    0 NMatD0=    1 NMtDS0=    0 NMtDT0=    0
 Petite list used in FoFCou.
 Keep R1 ints in memory in canonical form, NReq=970443945.
 Requested convergence on RMS density matrix=1.00D-08 within 128 cycles.
 Requested convergence on MAX density matrix=1.00D-06.
 Requested convergence on             energy=1.00D-06.
 No special actions if energy rises.
 Integral accuracy reduced to 1.0D-05 until final iterations.
 Initial convergence to 1.0D-05 achieved.  Increase integral accuracy.
 SCF Done:  E(RB3LYP) =  -432.664296941     A.U. after   13 cycles
            NFock= 13  Conv=0.17D-08     -V/T= 2.0074
 Calling FoFJK, ICntrl=      2127 FMM=F ISym2X=0 I1Cent= 0 IOpClX= 0 NMat=1 NMatS=1 NMatT=0.
 ***** Axes restored to original set *****
 -------------------------------------------------------------------
 Center     Atomic                   Forces (Hartrees/Bohr)
 Number     Number              X              Y              Z
 -------------------------------------------------------------------
      1        6          -0.000050750   -0.000009603    0.001217642
      2        6           0.001944943   -0.000060367   -0.000066694
      3        1          -0.000662928   -0.000064578    0.000432610
      4        1          -0.000642641    0.000066608    0.000436106
      5        6          -0.005082700    0.000034465   -0.000881997
      6        6           0.000899747    0.000016754   -0.000579444
      7        6          -0.000148075    0.000650281   -0.000992184
      8        6          -0.000152313   -0.000650007   -0.000993352
      9        6           0.003835317    0.000114094    0.001066810
     10        1          -0.000151921   -0.000089085   -0.000009213
     11        7           0.000225576    0.000126301    0.000163854
     12        7          -0.000238299   -0.000008042    0.000042024
     13        7           0.000224044   -0.000126822    0.000163839
 -------------------------------------------------------------------
 Cartesian Forces:  Max     0.005082700 RMS     0.001168739

 GradGradGradGradGradGradGradGradGradGradGradGradGradGradGradGradGradGrad
 Berny optimization.
 Using GEDIIS/GDIIS optimizer.
 FormGI is forming the generalized inverse of G from B-inverse, IUseBI=4.
 Internal  Forces:  Max     0.003831454 RMS     0.000798346
 Search for a local minimum.
 Step number   2 out of a maximum of   53
 All quantities printed in internal units (Hartrees-Bohrs-Radians)
 Mixed Optimization -- En-DIIS/RFO-DIIS
 Update second derivatives using D2CorX and points    1    2
 DE= -5.90D-03 DEPred=-5.97D-03 R= 9.87D-01
 TightC=F SS=  1.41D+00  RLast= 1.17D-01 DXNew= 5.0454D-01 3.5107D-01
 Trust test= 9.87D-01 RLast= 1.17D-01 DXMaxT set to 3.51D-01
 ITU=  1  0
 Use linear search instead of GDIIS.
     Eigenvalues ---    0.00230   0.00535   0.00535   0.04491   0.04493
     Eigenvalues ---    0.04586   0.04586   0.04587   0.04587   0.04587
     Eigenvalues ---    0.04596   0.05438   0.06363   0.08638   0.08920
     Eigenvalues ---    0.16000   0.16022   0.22608   0.24988   0.25000
     Eigenvalues ---    0.25069   0.26906   0.34165   0.34166   0.35302
     Eigenvalues ---    0.35359   0.35489   0.37540   0.37611   0.97873
     Eigenvalues ---    1.14529   1.14895   1.14920
 RFO step:  Lambda=-7.07766592D-05 EMin= 2.29999999D-03
 Quartic linear search produced a step of -0.02298.
 Iteration  1 RMS(Cart)=  0.01128107 RMS(Int)=  0.00014361
 Iteration  2 RMS(Cart)=  0.00015154 RMS(Int)=  0.00000599
 Iteration  3 RMS(Cart)=  0.00000004 RMS(Int)=  0.00000599
 Variable       Old X    -DE/DX   Delta X   Delta X   Delta X     New X
                                 (Linear)    (Quad)   (Total)
    R1        2.99013  -0.00124  -0.00087  -0.00316  -0.00403   2.98609
    R2        2.79340  -0.00044  -0.00019  -0.00092  -0.00111   2.79229
    R3        2.79437  -0.00088  -0.00024  -0.00207  -0.00230   2.79207
    R4        2.79437  -0.00088  -0.00024  -0.00207  -0.00231   2.79207
    R5        2.06839  -0.00004   0.00005  -0.00020  -0.00015   2.06824
    R6        2.06839  -0.00005   0.00005  -0.00022  -0.00017   2.06823
    R7        2.74495  -0.00129   0.00010  -0.00350  -0.00341   2.74155
    R8        2.26446   0.00383   0.00087   0.00270   0.00357   2.26802
    R9        2.17998   0.00020   0.00120  -0.00146  -0.00026   2.17973
   R10        2.17958   0.00023   0.00120  -0.00145  -0.00024   2.17934
   R11        2.17958   0.00023   0.00120  -0.00145  -0.00024   2.17934
   R12        2.00891  -0.00015   0.00018  -0.00066  -0.00048   2.00843
    A1        1.89826  -0.00097   0.00010  -0.00415  -0.00405   1.89420
    A2        1.92281  -0.00063  -0.00020  -0.00202  -0.00223   1.92058
    A3        1.92281  -0.00063  -0.00020  -0.00203  -0.00224   1.92057
    A4        1.90376   0.00078   0.00017   0.00259   0.00275   1.90651
    A5        1.90376   0.00077   0.00017   0.00256   0.00273   1.90649
    A6        1.91217   0.00069  -0.00003   0.00309   0.00307   1.91523
    A7        1.87184  -0.00088   0.00004  -0.00581  -0.00578   1.86606
    A8        1.87184  -0.00087   0.00004  -0.00580  -0.00577   1.86608
    A9        1.96023  -0.00058  -0.00060  -0.00114  -0.00173   1.95849
   A10        1.87723   0.00062   0.00015   0.00223   0.00235   1.87958
   A11        1.93936   0.00084   0.00019   0.00511   0.00530   1.94466
   A12        1.93936   0.00081   0.00019   0.00486   0.00504   1.94440
   A13        3.12663   0.00018   0.00024   0.00325   0.00349   3.13011
   A14        3.12983  -0.00001   0.00018  -0.00083  -0.00064   3.12919
   A15        3.09869   0.00025   0.00001   0.00540   0.00541   3.10410
   A16        3.16465  -0.00011  -0.00000  -0.00228  -0.00229   3.16236
   A17        3.14350  -0.00042  -0.00021  -0.00823  -0.00844   3.13506
   A18        3.16859  -0.00016  -0.00010  -0.00317  -0.00327   3.16532
   A19        3.14350  -0.00042  -0.00021  -0.00829  -0.00850   3.13499
   A20        3.11460   0.00016   0.00010   0.00320   0.00330   3.11790
   A21        3.14934  -0.00017  -0.00035  -0.02492  -0.02527   3.12407
   A22        3.13871  -0.00008   0.00023  -0.01746  -0.01723   3.12148
    D1       -1.00606   0.00007  -0.00011   0.00139   0.00127  -1.00479
    D2        1.00606  -0.00007   0.00011  -0.00173  -0.00161   1.00445
    D3        3.14159  -0.00001   0.00000  -0.00032  -0.00032   3.14126
    D4        1.07971   0.00005   0.00004   0.00079   0.00083   1.08053
    D5        3.09183  -0.00009   0.00025  -0.00232  -0.00206   3.08977
    D6       -1.05583  -0.00003   0.00015  -0.00092  -0.00077  -1.05660
    D7       -3.09183   0.00010  -0.00025   0.00202   0.00176  -3.09008
    D8       -1.07971  -0.00004  -0.00004  -0.00109  -0.00113  -1.08084
    D9        1.05582   0.00002  -0.00015   0.00031   0.00016   1.05598
         Item               Value     Threshold  Converged?
 Maximum Force            0.003831     0.000450     NO 
 RMS     Force            0.000798     0.000300     NO 
 Maximum Displacement     0.040811     0.001800     NO 
 RMS     Displacement     0.011296     0.001200     NO 
 Predicted change in Energy=-3.990928D-05
 GradGradGradGradGradGradGradGradGradGradGradGradGradGradGradGradGradGrad

                          Input orientation:                          
 ---------------------------------------------------------------------
 Center     Atomic      Atomic             Coordinates (Angstroms)
 Number     Number       Type             X           Y           Z
 ---------------------------------------------------------------------
      1          6           0       -0.457552    0.000668   -0.019144
      2          6           0        0.529478    0.002526   -1.253126
      3          1           0        0.291772   -0.881888   -1.852427
      4          1           0        0.287826    0.885517   -1.852935
      5          6           0        1.920910    0.005968   -0.842491
      6          6           0       -1.844940   -0.002341   -0.527564
      7          6           0       -0.237854   -1.207044    0.803151
      8          6           0       -0.242967    1.209613    0.802687
      9          6           0        3.066345    0.006328   -0.484121
     10          1           0        4.079337   -0.018805   -0.163504
     11          7           0       -0.068692    2.167317    1.421094
     12          7           0       -2.910698   -0.003989   -0.968732
     13          7           0       -0.059803   -2.163874    1.421835
 ---------------------------------------------------------------------
                    Distance matrix (angstroms):
                    1          2          3          4          5
     1  C    0.000000
     2  C    1.580173   0.000000
     3  H    2.168253   1.094466   0.000000
     4  H    2.168257   1.094458   1.767409   0.000000
     5  C    2.516945   1.450764   2.112428   2.112243   0.000000
     6  C    1.477614   2.482807   2.663533   2.663381   3.779005
     7  C    1.477500   2.506020   2.727330   3.421980   2.973180
     8  C    1.477498   2.506012   3.421981   2.727473   2.972833
     9  C    3.554446   2.650863   3.218608   3.219750   1.200187
    10  H    4.539227   3.713385   4.235921   4.248239   2.262840
    11  N    2.630563   3.492217   4.488154   3.534033   3.708607
    12  N    2.630525   3.451918   3.436196   3.435636   4.833268
    13  N    2.630564   3.492272   3.533821   4.488179   3.709260
                    6          7          8          9         10
     6  C    0.000000
     7  C    2.409322   0.000000
     8  C    2.409298   2.416662   0.000000
     9  C    4.911485   3.747942   3.749042   0.000000
    10  H    5.935476   4.580882   4.596177   1.062818   0.000000
    11  N    3.414636   3.434644   1.153255   4.257720   4.949366
    12  N    1.153461   3.425055   3.424550   5.996665   7.036278
    13  N    3.414541   1.153255   3.434721   4.256201   4.924135
                   11         12         13
    11  N    0.000000
    12  N    4.301492   0.000000
    13  N    4.331200   4.302036   0.000000
 Stoichiometry    C7H3N3
 Framework group  C1[X(C7H3N3)]
 Deg. of freedom    33
 Full point group                 C1      NOp   1
 Largest Abelian subgroup         C1      NOp   1
 Largest concise Abelian subgroup C1      NOp   1
                         Standard orientation:                         
 ---------------------------------------------------------------------
 Center     Atomic      Atomic             Coordinates (Angstroms)
 Number     Number       Type             X           Y           Z
 ---------------------------------------------------------------------
      1          6           0       -0.453771   -0.000259   -0.030353
      2          6           0        0.558291    0.001433   -1.243890
      3          1           0        0.332490   -0.882733   -1.848141
      4          1           0        0.329358    0.884674   -1.848303
      5          6           0        1.941036    0.004140   -0.804883
      6          6           0       -1.830472   -0.002514   -0.567041
      7          6           0       -0.251484   -1.208263    0.795971
      8          6           0       -0.255489    1.208396    0.795987
      9          6           0        3.078901    0.003891   -0.423163
     10          1           0        4.085113   -0.021780   -0.081901
     11          7           0       -0.093464    2.165876    1.418061
     12          7           0       -2.886985   -0.003571   -1.029914
     13          7           0       -0.086557   -2.165319    1.417936
 ---------------------------------------------------------------------
 Rotational constants (GHZ):           1.7221331           1.0839289           0.9934585
 Standard basis: GTBas3 (6D, 7F)
 There are   325 symmetry adapted cartesian basis functions of A   symmetry.
 There are   295 symmetry adapted basis functions of A   symmetry.
   295 basis functions,   461 primitive gaussians,   325 cartesian basis functions
    33 alpha electrons       33 beta electrons
       nuclear repulsion energy       404.9876683915 Hartrees.
 NAtoms=   13 NActive=   13 NUniq=   13 SFac= 1.00D+00 NAtFMM=   60 NAOKFM=F Big=F
 Integral buffers will be    131072 words long.
 Raffenetti 2 integral format.
 Two-electron integral symmetry is turned on.
 One-electron integrals computed using PRISM.
 NBasis=   295 RedAO= T EigKep=  9.91D-05  NBF=   295
 NBsUse=   295 1.00D-06 EigRej= -1.00D+00 NBFU=   295
 Initial guess from the checkpoint file:  "/home/artemiy/opt/gaussian/scr/Gau-15226.chk"
 B after Tr=    -0.000000    0.000000   -0.000000
         Rot=    0.999996    0.000111   -0.002781   -0.000601 Ang=   0.33 deg.
 ExpMin= 1.61D-01 ExpMax= 4.17D+03 ExpMxC= 6.27D+02 IAcc=2 IRadAn=         4 AccDes= 0.00D+00
 Harris functional with IExCor=  402 and IRadAn=       4 diagonalized for initial guess.
 HarFok:  IExCor=  402 AccDes= 0.00D+00 IRadAn=         4 IDoV= 1 UseB2=F ITyADJ=14
 ICtDFT=  3500011 ScaDFX=  1.000000  1.000000  1.000000  1.000000
 FoFCou: FMM=F IPFlag=           0 FMFlag=      100000 FMFlg1=           0
         NFxFlg=           0 DoJE=T BraDBF=F KetDBF=T FulRan=T
         wScrn=  0.000000 ICntrl=       500 IOpCl=  0 I1Cent=   200000004 NGrid=           0
         NMat0=    1 NMatS0=      1 NMatT0=    0 NMatD0=    1 NMtDS0=    0 NMtDT0=    0
 Petite list used in FoFCou.
 Keep R1 ints in memory in canonical form, NReq=970443945.
 Requested convergence on RMS density matrix=1.00D-08 within 128 cycles.
 Requested convergence on MAX density matrix=1.00D-06.
 Requested convergence on             energy=1.00D-06.
 No special actions if energy rises.
 Integral accuracy reduced to 1.0D-05 until final iterations.
 Initial convergence to 1.0D-05 achieved.  Increase integral accuracy.
 SCF Done:  E(RB3LYP) =  -432.664310585     A.U. after   11 cycles
            NFock= 11  Conv=0.47D-08     -V/T= 2.0074
 Calling FoFJK, ICntrl=      2127 FMM=F ISym2X=0 I1Cent= 0 IOpClX= 0 NMat=1 NMatS=1 NMatT=0.
 ***** Axes restored to original set *****
 -------------------------------------------------------------------
 Center     Atomic                   Forces (Hartrees/Bohr)
 Number     Number              X              Y              Z
 -------------------------------------------------------------------
      1        6          -0.000674433    0.000001901    0.000805620
      2        6           0.000862484    0.000413340   -0.000388401
      3        1           0.000044024    0.000008461   -0.000038059
      4        1          -0.000108349   -0.000019421   -0.000068302
      5        6          -0.000009563   -0.000161538   -0.000178037
      6        6           0.000398064    0.000032409    0.000253996
      7        6           0.000081740    0.000707578   -0.000314721
      8        6           0.000084665   -0.000714502   -0.000310376
      9        6          -0.000432761   -0.000936656    0.000270874
     10        1           0.000175760    0.000687427   -0.000198384
     11        7          -0.000011444    0.000463624    0.000223865
     12        7          -0.000410540   -0.000021203   -0.000282962
     13        7           0.000000353   -0.000461419    0.000224886
 -------------------------------------------------------------------
 Cartesian Forces:  Max     0.000936656 RMS     0.000397122

 GradGradGradGradGradGradGradGradGradGradGradGradGradGradGradGradGradGrad
 Berny optimization.
 Using GEDIIS/GDIIS optimizer.
 FormGI is forming the generalized inverse of G from B-inverse, IUseBI=4.
 Internal  Forces:  Max     0.001250263 RMS     0.000325609
 Search for a local minimum.
 Step number   3 out of a maximum of   53
 All quantities printed in internal units (Hartrees-Bohrs-Radians)
 Mixed Optimization -- En-DIIS/RFO-DIIS
 Swapping is turned off.
 Update second derivatives using D2CorX and points    1    2    3
 DE= -1.36D-05 DEPred=-3.99D-05 R= 3.42D-01
 Trust test= 3.42D-01 RLast= 3.73D-02 DXMaxT set to 3.51D-01
 ITU=  0  1  0
     Eigenvalues ---    0.00230   0.00533   0.01034   0.04152   0.04496
     Eigenvalues ---    0.04584   0.04586   0.04587   0.04587   0.04587
     Eigenvalues ---    0.05435   0.05693   0.06353   0.08669   0.08976
     Eigenvalues ---    0.14340   0.16032   0.22581   0.23002   0.25000
     Eigenvalues ---    0.25023   0.28665   0.33973   0.34169   0.34188
     Eigenvalues ---    0.35336   0.35359   0.36870   0.37595   0.94081
     Eigenvalues ---    1.14887   1.14920   1.15186
 En-DIIS/RFO-DIIS/Sim-DIIS IScMMF=       -3 using points:     3    2
 RFO step:  Lambda=-1.43264982D-04.
 DidBck=T Rises=F RFO-DIIS coefs:   -0.75300    1.75300
 Iteration  1 RMS(Cart)=  0.02818630 RMS(Int)=  0.00151553
 Iteration  2 RMS(Cart)=  0.00151819 RMS(Int)=  0.00000739
 Iteration  3 RMS(Cart)=  0.00000342 RMS(Int)=  0.00000695
 Iteration  4 RMS(Cart)=  0.00000000 RMS(Int)=  0.00000695
 Variable       Old X    -DE/DX   Delta X   Delta X   Delta X     New X
                                 (Linear)    (Quad)   (Total)
    R1        2.98609   0.00080   0.00707  -0.01153  -0.00446   2.98163
    R2        2.79229   0.00002   0.00195  -0.00366  -0.00171   2.79058
    R3        2.79207  -0.00024   0.00404  -0.00814  -0.00410   2.78797
    R4        2.79207  -0.00024   0.00405  -0.00815  -0.00411   2.78796
    R5        2.06824   0.00000   0.00027  -0.00054  -0.00027   2.06797
    R6        2.06823   0.00005   0.00029  -0.00051  -0.00022   2.06800
    R7        2.74155  -0.00029   0.00597  -0.01212  -0.00615   2.73540
    R8        2.26802  -0.00022  -0.00626   0.01154   0.00528   2.27330
    R9        2.17973   0.00049   0.00045  -0.00133  -0.00087   2.17885
   R10        2.17934   0.00050   0.00043  -0.00127  -0.00084   2.17849
   R11        2.17934   0.00050   0.00043  -0.00127  -0.00084   2.17849
   R12        2.00843   0.00009   0.00084  -0.00158  -0.00074   2.00769
    A1        1.89420  -0.00018   0.00711  -0.01427  -0.00717   1.88703
    A2        1.92058  -0.00004   0.00391  -0.00763  -0.00373   1.91685
    A3        1.92057  -0.00000   0.00392  -0.00756  -0.00365   1.91693
    A4        1.90651   0.00011  -0.00483   0.00960   0.00476   1.91128
    A5        1.90649   0.00010  -0.00478   0.00951   0.00472   1.91121
    A6        1.91523   0.00000  -0.00538   0.01037   0.00499   1.92022
    A7        1.86606   0.00003   0.01013  -0.01984  -0.00972   1.85635
    A8        1.86608  -0.00007   0.01011  -0.01980  -0.00971   1.85637
    A9        1.95849   0.00019   0.00304  -0.00509  -0.00205   1.95644
   A10        1.87958  -0.00005  -0.00412   0.00749   0.00334   1.88292
   A11        1.94466  -0.00013  -0.00929   0.01730   0.00801   1.95267
   A12        1.94440   0.00003  -0.00884   0.01764   0.00880   1.95320
   A13        3.13011  -0.00038  -0.00611   0.00691   0.00079   3.13091
   A14        3.12919   0.00071   0.00113   0.00716   0.00828   3.13747
   A15        3.10410  -0.00023  -0.00948   0.01548   0.00600   3.11010
   A16        3.16236   0.00004   0.00401  -0.00725  -0.00324   3.15912
   A17        3.13506   0.00017   0.01480  -0.02657  -0.01177   3.12329
   A18        3.16532   0.00014   0.00573  -0.00930  -0.00357   3.16175
   A19        3.13499   0.00019   0.01491  -0.02650  -0.01160   3.12340
   A20        3.11790  -0.00015  -0.00579   0.00934   0.00356   3.12146
   A21        3.12407   0.00125   0.04429   0.04961   0.09390   3.21798
   A22        3.12148   0.00064   0.03021   0.01309   0.04330   3.16478
    D1       -1.00479   0.00002  -0.00223   0.00543   0.00318  -1.00161
    D2        1.00445  -0.00005   0.00282  -0.00493  -0.00210   1.00235
    D3        3.14126   0.00005   0.00056   0.00047   0.00104  -3.14088
    D4        1.08053   0.00003  -0.00145   0.00391   0.00245   1.08299
    D5        3.08977  -0.00005   0.00361  -0.00644  -0.00283   3.08694
    D6       -1.05660   0.00006   0.00135  -0.00104   0.00031  -1.05629
    D7       -3.09008   0.00001  -0.00308   0.00701   0.00391  -3.08616
    D8       -1.08084  -0.00007   0.00197  -0.00335  -0.00136  -1.08221
    D9        1.05598   0.00004  -0.00028   0.00205   0.00177   1.05775
         Item               Value     Threshold  Converged?
 Maximum Force            0.001250     0.000450     NO 
 RMS     Force            0.000326     0.000300     NO 
 Maximum Displacement     0.123802     0.001800     NO 
 RMS     Displacement     0.028384     0.001200     NO 
 Predicted change in Energy=-7.245453D-05
 GradGradGradGradGradGradGradGradGradGradGradGradGradGradGradGradGradGrad

                          Input orientation:                          
 ---------------------------------------------------------------------
 Center     Atomic      Atomic             Coordinates (Angstroms)
 Number     Number       Type             X           Y           Z
 ---------------------------------------------------------------------
      1          6           0       -0.461368   -0.001843   -0.016512
      2          6           0        0.529565   -0.006252   -1.244323
      3          1           0        0.278410   -0.889235   -1.839978
      4          1           0        0.287714    0.880096   -1.838862
      5          6           0        1.915192   -0.014250   -0.825687
      6          6           0       -1.841930    0.005224   -0.540603
      7          6           0       -0.250846   -1.211915    0.800806
      8          6           0       -0.238970    1.205394    0.801840
      9          6           0        3.062943   -0.016545   -0.465374
     10          1           0        4.089135    0.046708   -0.197657
     11          7           0       -0.045463    2.159175    1.419761
     12          7           0       -2.905032    0.011217   -0.986905
     13          7           0       -0.066187   -2.167778    1.418217
 ---------------------------------------------------------------------
                    Distance matrix (angstroms):
                    1          2          3          4          5
     1  C    0.000000
     2  C    1.577811   0.000000
     3  H    2.158649   1.094322   0.000000
     4  H    2.158680   1.094341   1.769356   0.000000
     5  C    2.510568   1.447509   2.115051   2.115434   0.000000
     6  C    1.476710   2.473731   2.642778   2.643154   3.767972
     7  C    1.475331   2.499043   2.712559   3.410924   2.961688
     8  C    1.475324   2.499103   3.410917   2.712290   2.962564
     9  C    3.552810   2.650447   3.225639   3.223714   1.202981
    10  H    4.554366   3.710641   4.253802   4.223611   2.263662
    11  N    2.627899   3.480959   4.474773   3.516485   3.689170
    12  N    2.629320   3.444274   3.416555   3.416783   4.822986
    13  N    2.627906   3.480838   3.516995   4.474745   3.687634
                    6          7          8          9         10
     6  C    0.000000
     7  C    2.410882   0.000000
     8  C    2.410817   2.417338   0.000000
     9  C    4.905498   3.743436   3.741870   0.000000
    10  H    5.941117   4.627796   4.590647   1.062424   0.000000
    11  N    3.421962   3.433589   1.152809   4.236705   4.916650
    12  N    1.152999   3.425882   3.425427   5.990784   7.038646
    13  N    3.422305   1.152809   3.433375   4.238770   4.978122
                   11         12         13
    11  N    0.000000
    12  N    4.310789   0.000000
    13  N    4.327003   4.311806   0.000000
 Stoichiometry    C7H3N3
 Framework group  C1[X(C7H3N3)]
 Deg. of freedom    33
 Full point group                 C1      NOp   1
 Largest Abelian subgroup         C1      NOp   1
 Largest concise Abelian subgroup C1      NOp   1
                         Standard orientation:                         
 ---------------------------------------------------------------------
 Center     Atomic      Atomic             Coordinates (Angstroms)
 Number     Number       Type             X           Y           Z
 ---------------------------------------------------------------------
      1          6           0       -0.458504    0.000197   -0.023632
      2          6           0        0.545684   -0.001890   -1.240633
      3          1           0        0.302500   -0.884983   -1.839423
      4          1           0        0.308785    0.884360   -1.837309
      5          6           0        1.926704   -0.007760   -0.807007
      6          6           0       -1.833315    0.005201   -0.562652
      7          6           0       -0.254796   -1.209946    0.795306
      8          6           0       -0.247039    1.207379    0.797693
      9          6           0        3.070485   -0.008301   -0.434277
     10          1           0        4.093607    0.056549   -0.155421
     11          7           0       -0.061860    2.161161    1.418159
     12          7           0       -2.891526    0.009628   -1.020447
     13          7           0       -0.075215   -2.165819    1.414198
 ---------------------------------------------------------------------
 Rotational constants (GHZ):           1.7262004           1.0873194           0.9958419
 Standard basis: GTBas3 (6D, 7F)
 There are   325 symmetry adapted cartesian basis functions of A   symmetry.
 There are   295 symmetry adapted basis functions of A   symmetry.
   295 basis functions,   461 primitive gaussians,   325 cartesian basis functions
    33 alpha electrons       33 beta electrons
       nuclear repulsion energy       405.4458095799 Hartrees.
 NAtoms=   13 NActive=   13 NUniq=   13 SFac= 1.00D+00 NAtFMM=   60 NAOKFM=F Big=F
 Integral buffers will be    131072 words long.
 Raffenetti 2 integral format.
 Two-electron integral symmetry is turned on.
 One-electron integrals computed using PRISM.
 NBasis=   295 RedAO= T EigKep=  9.86D-05  NBF=   295
 NBsUse=   295 1.00D-06 EigRej= -1.00D+00 NBFU=   295
 Initial guess from the checkpoint file:  "/home/artemiy/opt/gaussian/scr/Gau-15226.chk"
 B after Tr=     0.000000    0.000000    0.000000
         Rot=    0.999994   -0.000507   -0.003151    0.001522 Ang=  -0.41 deg.
 ExpMin= 1.61D-01 ExpMax= 4.17D+03 ExpMxC= 6.27D+02 IAcc=2 IRadAn=         4 AccDes= 0.00D+00
 Harris functional with IExCor=  402 and IRadAn=       4 diagonalized for initial guess.
 HarFok:  IExCor=  402 AccDes= 0.00D+00 IRadAn=         4 IDoV= 1 UseB2=F ITyADJ=14
 ICtDFT=  3500011 ScaDFX=  1.000000  1.000000  1.000000  1.000000
 FoFCou: FMM=F IPFlag=           0 FMFlag=      100000 FMFlg1=           0
         NFxFlg=           0 DoJE=T BraDBF=F KetDBF=T FulRan=T
         wScrn=  0.000000 ICntrl=       500 IOpCl=  0 I1Cent=   200000004 NGrid=           0
         NMat0=    1 NMatS0=      1 NMatT0=    0 NMatD0=    1 NMtDS0=    0 NMtDT0=    0
 Petite list used in FoFCou.
 Keep R1 ints in memory in canonical form, NReq=970443945.
 Requested convergence on RMS density matrix=1.00D-08 within 128 cycles.
 Requested convergence on MAX density matrix=1.00D-06.
 Requested convergence on             energy=1.00D-06.
 No special actions if energy rises.
 Integral accuracy reduced to 1.0D-05 until final iterations.
 Initial convergence to 1.0D-05 achieved.  Increase integral accuracy.
 SCF Done:  E(RB3LYP) =  -432.664047758     A.U. after   11 cycles
            NFock= 11  Conv=0.49D-08     -V/T= 2.0074
 Calling FoFJK, ICntrl=      2127 FMM=F ISym2X=0 I1Cent= 0 IOpClX= 0 NMat=1 NMatS=1 NMatT=0.
 ***** Axes restored to original set *****
 -------------------------------------------------------------------
 Center     Atomic                   Forces (Hartrees/Bohr)
 Number     Number              X              Y              Z
 -------------------------------------------------------------------
      1        6          -0.001558573   -0.000046600   -0.000091962
      2        6          -0.001534819   -0.001006954    0.000013466
      3        1           0.000881898    0.000104245   -0.000841171
      4        1           0.001249098   -0.000082129   -0.000762644
      5        6           0.007432325    0.000294922    0.001025477
      6        6           0.000223472    0.000039004    0.001782933
      7        6           0.000206539    0.001119050    0.000401715
      8        6           0.000194782   -0.001102003    0.000384106
      9        6          -0.005662019    0.002406334   -0.003873459
     10        1           0.000218293   -0.001714819    0.001566726
     11        7          -0.000171167    0.001457754    0.000690361
     12        7          -0.001272316   -0.000006564   -0.000979410
     13        7          -0.000207513   -0.001462240    0.000683862
 -------------------------------------------------------------------
 Cartesian Forces:  Max     0.007432325 RMS     0.001881573

 GradGradGradGradGradGradGradGradGradGradGradGradGradGradGradGradGradGrad
 Berny optimization.
 Using GEDIIS/GDIIS optimizer.
 FormGI is forming the generalized inverse of G from B-inverse, IUseBI=4.
 Internal  Forces:  Max     0.005886437 RMS     0.001605090
 Search for a local minimum.
 Step number   4 out of a maximum of   53
 All quantities printed in internal units (Hartrees-Bohrs-Radians)
 Mixed Optimization -- RFO/linear search
 Update second derivatives using D2CorX and points    1    2    4    3
 DE=  2.63D-04 DEPred=-7.25D-05 R=-3.63D+00
 Trust test=-3.63D+00 RLast= 1.09D-01 DXMaxT set to 1.76D-01
 ITU= -1  0  1  0
 Use linear search instead of GDIIS.
     Eigenvalues ---    0.00230   0.00522   0.03033   0.04479   0.04569
     Eigenvalues ---    0.04586   0.04587   0.04587   0.04587   0.04975
     Eigenvalues ---    0.05497   0.06370   0.08033   0.08719   0.09074
     Eigenvalues ---    0.15070   0.16036   0.22902   0.23287   0.25001
     Eigenvalues ---    0.25025   0.29681   0.34163   0.34168   0.34384
     Eigenvalues ---    0.35359   0.35365   0.36894   0.37583   0.98600
     Eigenvalues ---    1.08847   1.14892   1.14920
 RFO step:  Lambda=-3.45372954D-05 EMin= 2.30020589D-03
 Quartic linear search produced a step of -0.82364.
 Iteration  1 RMS(Cart)=  0.02302844 RMS(Int)=  0.00101616
 Iteration  2 RMS(Cart)=  0.00103595 RMS(Int)=  0.00000190
 Iteration  3 RMS(Cart)=  0.00000081 RMS(Int)=  0.00000182
 Variable       Old X    -DE/DX   Delta X   Delta X   Delta X     New X
                                 (Linear)    (Quad)   (Total)
    R1        2.98163   0.00386   0.00368   0.00364   0.00731   2.98895
    R2        2.79058   0.00069   0.00141   0.00018   0.00159   2.79216
    R3        2.78797   0.00088   0.00337  -0.00037   0.00301   2.79098
    R4        2.78796   0.00089   0.00338  -0.00037   0.00301   2.79097
    R5        2.06797   0.00017   0.00022   0.00009   0.00031   2.06828
    R6        2.06800   0.00007   0.00018   0.00011   0.00030   2.06830
    R7        2.73540   0.00153   0.00507  -0.00020   0.00486   2.74026
    R8        2.27330  -0.00589  -0.00435  -0.00054  -0.00489   2.26841
    R9        2.17885   0.00155   0.00072   0.00073   0.00145   2.18030
   R10        2.17849   0.00154   0.00069   0.00074   0.00143   2.17993
   R11        2.17849   0.00155   0.00069   0.00074   0.00144   2.17993
   R12        2.00769   0.00050   0.00061   0.00037   0.00099   2.00868
    A1        1.88703   0.00123   0.00591  -0.00001   0.00590   1.89293
    A2        1.91685   0.00098   0.00307   0.00018   0.00325   1.92010
    A3        1.91693   0.00091   0.00300   0.00022   0.00322   1.92015
    A4        1.91128  -0.00103  -0.00392   0.00008  -0.00384   1.90744
    A5        1.91121  -0.00101  -0.00389   0.00008  -0.00381   1.90740
    A6        1.92022  -0.00106  -0.00411  -0.00053  -0.00464   1.91558
    A7        1.85635   0.00129   0.00800   0.00083   0.00883   1.86518
    A8        1.85637   0.00150   0.00799   0.00081   0.00880   1.86517
    A9        1.95644   0.00174   0.00169   0.00145   0.00314   1.95957
   A10        1.88292  -0.00108  -0.00275  -0.00108  -0.00383   1.87909
   A11        1.95267  -0.00143  -0.00660  -0.00114  -0.00774   1.94493
   A12        1.95320  -0.00183  -0.00725  -0.00079  -0.00804   1.94516
   A13        3.13091  -0.00003  -0.00065  -0.00472  -0.00537   3.12554
   A14        3.13747  -0.00239  -0.00682   0.00065  -0.00617   3.13130
   A15        3.11010  -0.00083  -0.00494  -0.00558  -0.01052   3.09958
   A16        3.15912   0.00028   0.00267   0.00131   0.00399   3.16310
   A17        3.12329   0.00099   0.00970   0.00478   0.01447   3.13776
   A18        3.16175   0.00051   0.00294   0.00336   0.00630   3.16805
   A19        3.12340   0.00093   0.00955   0.00485   0.01440   3.13779
   A20        3.12146  -0.00049  -0.00293  -0.00337  -0.00630   3.11515
   A21        3.21798  -0.00445  -0.07734  -0.00596  -0.08330   3.13468
   A22        3.16478  -0.00079  -0.03566   0.04803   0.01237   3.17714
    D1       -1.00161   0.00001  -0.00262   0.00030  -0.00232  -1.00393
    D2        1.00235   0.00007   0.00173  -0.00017   0.00155   1.00390
    D3       -3.14088  -0.00014  -0.00085   0.00027  -0.00058  -3.14146
    D4        1.08299   0.00008  -0.00202   0.00050  -0.00152   1.08146
    D5        3.08694   0.00013   0.00233   0.00002   0.00235   3.08929
    D6       -1.05629  -0.00007  -0.00025   0.00047   0.00022  -1.05607
    D7       -3.08616  -0.00003  -0.00322   0.00009  -0.00313  -3.08929
    D8       -1.08221   0.00002   0.00112  -0.00038   0.00074  -1.08147
    D9        1.05775  -0.00018  -0.00146   0.00006  -0.00139   1.05635
         Item               Value     Threshold  Converged?
 Maximum Force            0.005886     0.000450     NO 
 RMS     Force            0.001605     0.000300     NO 
 Maximum Displacement     0.089484     0.001800     NO 
 RMS     Displacement     0.023138     0.001200     NO 
 Predicted change in Energy=-2.933721D-05
 GradGradGradGradGradGradGradGradGradGradGradGradGradGradGradGradGradGrad

                          Input orientation:                          
 ---------------------------------------------------------------------
 Center     Atomic      Atomic             Coordinates (Angstroms)
 Number     Number       Type             X           Y           Z
 ---------------------------------------------------------------------
      1          6           0       -0.456707   -0.000569   -0.017260
      2          6           0        0.528831   -0.002338   -1.254365
      3          1           0        0.285104   -0.885396   -1.853288
      4          1           0        0.288445    0.881748   -1.853138
      5          6           0        1.920856   -0.005202   -0.848167
      6          6           0       -1.844388    0.002122   -0.524695
      7          6           0       -0.239748   -1.209070    0.803564
      8          6           0       -0.235213    1.206940    0.803806
      9          6           0        3.066734   -0.004745   -0.490529
     10          1           0        4.073548    0.015881   -0.150304
     11          7           0       -0.058798    2.166236    1.419720
     12          7           0       -2.908785    0.003483   -0.969927
     13          7           0       -0.066717   -2.169094    1.419304
 ---------------------------------------------------------------------
                    Distance matrix (angstroms):
                    1          2          3          4          5
     1  C    0.000000
     2  C    1.581682   0.000000
     3  H    2.168918   1.094488   0.000000
     4  H    2.168913   1.094497   1.767147   0.000000
     5  C    2.518578   1.450082   2.112036   2.112206   0.000000
     6  C    1.477550   2.482863   2.662252   2.662232   3.779120
     7  C    1.476922   2.506390   2.727472   3.421780   2.974177
     8  C    1.476918   2.506428   3.421805   2.727512   2.974380
     9  C    3.555086   2.650358   3.220268   3.218923   1.200392
    10  H    4.532238   3.712721   4.250267   4.239856   2.263082
    11  N    2.630264   3.492671   4.488130   3.533000   3.711804
    12  N    2.630642   3.449369   3.430942   3.431281   4.831184
    13  N    2.630267   3.492565   3.532919   4.488057   3.711374
                    6          7          8          9         10
     6  C    0.000000
     7  C    2.409590   0.000000
     8  C    2.409552   2.416014   0.000000
     9  C    4.911245   3.749387   3.747844   0.000000
    10  H    5.929783   4.584201   4.571036   1.062946   0.000000
    11  N    3.413571   3.435853   1.153569   4.258070   4.915820
    12  N    1.153766   3.426269   3.426723   5.994724   7.030286
    13  N    3.413711   1.153569   3.435816   4.260326   4.937568
                   11         12         13
    11  N    0.000000
    12  N    4.302365   0.000000
    13  N    4.335337   4.301845   0.000000
 Stoichiometry    C7H3N3
 Framework group  C1[X(C7H3N3)]
 Deg. of freedom    33
 Full point group                 C1      NOp   1
 Largest Abelian subgroup         C1      NOp   1
 Largest concise Abelian subgroup C1      NOp   1
                         Standard orientation:                         
 ---------------------------------------------------------------------
 Center     Atomic      Atomic             Coordinates (Angstroms)
 Number     Number       Type             X           Y           Z
 ---------------------------------------------------------------------
      1          6           0       -0.453933    0.000232   -0.027847
      2          6           0        0.557696   -0.001360   -1.243709
      3          1           0        0.326986   -0.884516   -1.847624
      4          1           0        0.329875    0.882629   -1.847519
      5          6           0        1.940767   -0.003845   -0.807996
      6          6           0       -1.830507    0.002539   -0.564682
      7          6           0       -0.254175   -1.208165    0.797486
      8          6           0       -0.250258    1.207846    0.797666
      9          6           0        3.078778   -0.003075   -0.426067
     10          1           0        4.078123    0.017828   -0.064506
     11          7           0       -0.087227    2.167224    1.417130
     12          7           0       -2.885194    0.003602   -1.032453
     13          7           0       -0.094036   -2.168107    1.416829
 ---------------------------------------------------------------------
 Rotational constants (GHZ):           1.7201952           1.0842670           0.9934837
 Standard basis: GTBas3 (6D, 7F)
 There are   325 symmetry adapted cartesian basis functions of A   symmetry.
 There are   295 symmetry adapted basis functions of A   symmetry.
   295 basis functions,   461 primitive gaussians,   325 cartesian basis functions
    33 alpha electrons       33 beta electrons
       nuclear repulsion energy       404.9541554606 Hartrees.
 NAtoms=   13 NActive=   13 NUniq=   13 SFac= 1.00D+00 NAtFMM=   60 NAOKFM=F Big=F
 Integral buffers will be    131072 words long.
 Raffenetti 2 integral format.
 Two-electron integral symmetry is turned on.
 One-electron integrals computed using PRISM.
 NBasis=   295 RedAO= T EigKep=  9.91D-05  NBF=   295
 NBsUse=   295 1.00D-06 EigRej= -1.00D+00 NBFU=   295
 Lowest energy guess from the checkpoint file:  "/home/artemiy/opt/gaussian/scr/Gau-15226.chk"
 B after Tr=    -0.000000   -0.000000    0.000000
         Rot=    0.999999   -0.000027   -0.000012    0.001027 Ang=  -0.12 deg.
 B after Tr=    -0.000000   -0.000000   -0.000000
         Rot=    0.999995    0.000469    0.003139   -0.000497 Ang=   0.37 deg.
 Keep R1 ints in memory in canonical form, NReq=970443945.
 Requested convergence on RMS density matrix=1.00D-08 within 128 cycles.
 Requested convergence on MAX density matrix=1.00D-06.
 Requested convergence on             energy=1.00D-06.
 No special actions if energy rises.
 Integral accuracy reduced to 1.0D-05 until final iterations.
 Initial convergence to 1.0D-05 achieved.  Increase integral accuracy.
 SCF Done:  E(RB3LYP) =  -432.664295901     A.U. after   10 cycles
            NFock= 10  Conv=0.67D-08     -V/T= 2.0074
 Calling FoFJK, ICntrl=      2127 FMM=F ISym2X=0 I1Cent= 0 IOpClX= 0 NMat=1 NMatS=1 NMatT=0.
 ***** Axes restored to original set *****
 -------------------------------------------------------------------
 Center     Atomic                   Forces (Hartrees/Bohr)
 Number     Number              X              Y              Z
 -------------------------------------------------------------------
      1        6          -0.000143412    0.000000183    0.000383160
      2        6           0.000249128   -0.000347967   -0.000648101
      3        1          -0.000096820    0.000016281   -0.000051580
      4        1           0.000036161   -0.000008237   -0.000026413
[...]
 Alpha virt. eigenvalues --   13.37187  13.44424  13.51022  13.68445  13.74973
 Alpha virt. eigenvalues --   13.75560  13.78720  13.79313  13.80211  13.81948
 Alpha virt. eigenvalues --   13.82981  13.84686  13.86098  13.87330  13.91933
 Alpha virt. eigenvalues --   13.98454  14.01089  14.08659  14.08732  14.09086
 Alpha virt. eigenvalues --   14.09117  14.09145  14.09150  14.13663  14.21036
 Alpha virt. eigenvalues --   14.21778  14.24365  14.25259  14.27239  14.27369
 Alpha virt. eigenvalues --   14.36408  14.39767  14.40786  14.41029  14.41353
 Alpha virt. eigenvalues --   14.41360  14.43439  14.45604  14.45607  14.45735
 Alpha virt. eigenvalues --   14.46889  14.48120  14.48411  14.48967  14.50450
 Alpha virt. eigenvalues --   14.50803  14.57300  14.61961  14.62276  14.74999
 Alpha virt. eigenvalues --   14.88406  14.91233  14.94687  15.07886  15.11535
 Alpha virt. eigenvalues --   15.12725  15.13090  15.14457  15.14505  15.19450
 Alpha virt. eigenvalues --   15.20386  15.21381  15.21821  15.39821  15.42773
 Alpha virt. eigenvalues --   15.60481  15.79905  15.80051  16.05065  16.05267
 Alpha virt. eigenvalues --   16.07563  16.08488  16.09342  16.10250  16.14731
 Alpha virt. eigenvalues --   16.15381  16.22668  16.26524  16.26551  16.36005
 Alpha virt. eigenvalues --   16.85371  16.87995  17.03072  17.07016  17.07419
 Alpha virt. eigenvalues --   17.09873  17.62405  17.82396  17.83346  17.84610
 Alpha virt. eigenvalues --   17.85940  17.86052  17.86776  17.87407  18.12670
 Alpha virt. eigenvalues --   18.12857  18.14558  18.18009  18.18022  18.20295
 Alpha virt. eigenvalues --   18.58104  19.31830  19.52378  19.52390  19.54957
 Alpha virt. eigenvalues --   19.55036  19.55456  19.56459  19.89694  19.93390
 Alpha virt. eigenvalues --   19.93781  21.05457  21.08476  21.08544  38.56866
 Alpha virt. eigenvalues --   39.39980  39.71020  39.71304  40.80678  41.15861
 Alpha virt. eigenvalues --   42.14485  52.09936  52.11398  52.12554
          Condensed to atoms (all electrons):
               1          2          3          4          5          6
     1  C    4.272102   0.402965  -0.018051  -0.018071  -0.040306   0.334623
     2  C    0.402965   4.838454   0.391305   0.391306   0.409373   0.001756
     3  H   -0.018051   0.391305   0.427315  -0.019860  -0.019087  -0.004171
     4  H   -0.018071   0.391306  -0.019860   0.427321  -0.019067  -0.004162
     5  C   -0.040306   0.409373  -0.019087  -0.019067   4.672929   0.005051
     6  C    0.334623   0.001756  -0.004171  -0.004162   0.005051   4.804084
     7  C    0.311005  -0.005782  -0.004144   0.004912  -0.013922  -0.040596
     8  C    0.311066  -0.005761   0.004911  -0.004141  -0.013906  -0.040620
     9  C   -0.017474  -0.111926   0.000209   0.000196   0.975623   0.001233
    10  H   -0.000737   0.002799  -0.000005  -0.000005  -0.030012  -0.000077
    11  N   -0.050459   0.001208   0.000570  -0.000794   0.000944  -0.004671
    12  N   -0.046034   0.001181  -0.000683  -0.000681   0.000878   0.832139
    13  N   -0.050459   0.001207  -0.000791   0.000569   0.000941  -0.004674
               7          8          9         10         11         12
     1  C    0.311005   0.311066  -0.017474  -0.000737  -0.050459  -0.046034
     2  C   -0.005782  -0.005761  -0.111926   0.002799   0.001208   0.001181
     3  H   -0.004144   0.004911   0.000209  -0.000005   0.000570  -0.000683
     4  H    0.004912  -0.004141   0.000196  -0.000005  -0.000794  -0.000681
     5  C   -0.013922  -0.013906   0.975623  -0.030012   0.000944   0.000878
     6  C   -0.040596  -0.040620   0.001233  -0.000077  -0.004671   0.832139
     7  C    4.835322  -0.030646   0.003723   0.000209  -0.004363  -0.007994
     8  C   -0.030646   4.835242   0.003730   0.000209   0.807066  -0.007996
     9  C    0.003723   0.003730   5.167230   0.409773   0.001568  -0.000095
    10  H    0.000209   0.000209   0.409773   0.349518  -0.000037   0.000007
    11  N   -0.004363   0.807066   0.001568  -0.000037   6.606954   0.001735
    12  N   -0.007994  -0.007996  -0.000095   0.000007   0.001735   6.594655
    13  N    0.807064  -0.004364   0.001568  -0.000037   0.001265   0.001733
              13
     1  C   -0.050459
     2  C    0.001207
     3  H   -0.000791
     4  H    0.000569
     5  C    0.000941
     6  C   -0.004674
     7  C    0.807064
     8  C   -0.004364
     9  C    0.001568
    10  H   -0.000037
    11  N    0.001265
    12  N    0.001733
    13  N    6.606964
 Mulliken charges:
               1
     1  C    0.609832
     2  C   -0.318083
     3  H    0.242483
     4  H    0.242478
     5  C    0.070562
     6  C    0.120085
     7  C    0.145212
     8  C    0.145210
     9  C   -0.435358
    10  H    0.268395
    11  N   -0.360987
    12  N   -0.368845
    13  N   -0.360985
 Sum of Mulliken charges =  -0.00000
 Mulliken charges with hydrogens summed into heavy atoms:
               1
     1  C    0.609832
     2  C    0.166878
     5  C    0.070562
     6  C    0.120085
     7  C    0.145212
     8  C    0.145210
     9  C   -0.166962
    11  N   -0.360987
    12  N   -0.368845
    13  N   -0.360985
 Electronic spatial extent (au):  <R**2>=           1318.0148
 Charge=             -0.0000 electrons
 Dipole moment (field-independent basis, Debye):
    X=              2.9313    Y=              0.0006    Z=             -2.8557  Tot=              4.0924
 Quadrupole moment (field-independent basis, Debye-Ang):
   XX=            -58.4994   YY=            -68.9364   ZZ=            -60.6141
   XY=              0.0050   XZ=             -2.7513   YZ=             -0.0004
 Traceless Quadrupole moment (field-independent basis, Debye-Ang):
   XX=              4.1839   YY=             -6.2531   ZZ=              2.0692
   XY=              0.0050   XZ=             -2.7513   YZ=             -0.0004
 Octapole moment (field-independent basis, Debye-Ang**2):
  XXX=             76.4467  YYY=              0.0041  ZZZ=            -11.5621  XYY=             -3.7104
  XXY=              0.0129  XXZ=             20.1340  XZZ=              1.3422  YZZ=             -0.0013
  YYZ=            -22.7303  XYZ=              0.0035
 Hexadecapole moment (field-independent basis, Debye-Ang**3):
 XXXX=           -852.5419 YYYY=           -568.5408 ZZZZ=           -398.0429 XXXY=              0.0612
 XXXZ=            -18.5988 YYYX=              0.0111 YYYZ=              0.0003 ZZZX=              0.2428
 ZZZY=             -0.0040 XXYY=           -253.0301 XXZZ=           -255.9074 YYZZ=           -176.1164
 XXYZ=              0.0008 YYXZ=              3.2449 ZZXY=              0.0045
 N-N= 4.049157209074D+02 E-N=-1.812563935981D+03  KE= 4.294983063145D+02
 1\1\GINC-ARTEMIY-VIRTUALBOX\SP\RHF\GFHFB2\C7H3N3\ARTEMIY\18-Jun-2022\0
 \\#N Geom=AllCheck Guess=TCheck SCRF=Check HF/GFHFB2 SCF=Tight\\Title 
 Card Required\\0,1\C,0,-0.4585852113,-0.0000000756,-0.0162993881\C,0,0
 .5305277405,-0.0001178576,-1.2517028509\H,0,0.2898706168,-0.8836612921
 ,-1.8511866686\H,0,0.290002871,0.8834070512,-1.8512702753\C,0,1.921501
 5537,-0.0001957992,-0.8420065882\C,0,-1.8447210844,-0.0000923278,-0.52
 77435732\C,0,-0.2413946799,-1.2081146798,0.8050678705\C,0,-0.241400397
 6,1.2082744537,0.8048455658\C,0,3.0667746965,-0.000234785,-0.483518333
 1\H,0,4.0829196006,0.0001987053,-0.1716306048\N,0,-0.0669898001,2.1670
 164699,1.4220318149\N,0,-2.9084787944,0.0002309246,-0.9743066988\N,0,-
 0.0668661113,-2.1667147875,1.42244173\\Version=ES64L-G16RevA.03\State=
 1-A\HF=-430.2167369\RMSD=6.049e-09\Dipole=1.130013,-0.0000857,-1.14691
 24\Quadrupole=3.0261442,-4.6490231,1.6228789,0.0024807,-2.0759963,0.00
 08236\PG=C01 [X(C7H3N3)]\\@


 FIREWORKS ENDED
 AND SPECTATORS GONE AWAY....
 AH, HOW VAST AND DARK
                     SHIKI
 Diagonal vibrational polarizability:
        0.0000000       0.0000000       0.0000000
 
 Temperature=              298.150000 Pressure=                      1.000000
 E(ZPE)=                     0.078781 E(Thermal)=                    0.088859
 E(QCISD(T))=             -431.483649 E(Empiric)=                   -0.159781
 E(CCSD(T))=                -0.159781 E(Empiric)=                   -0.025787
 DE(Plus)=                  -0.270131 DE(2DF)=                      -0.586136
 E(Delta-G3XP)=             -0.037784 DE(HF)=                     -432.484486
 G4(0 K)=                 -432.474408 G4 Energy=                  -432.473463
 G4 Enthalpy=             -432.520115 G4 Free Energy=    
 1\1\GINC-ARTEMIY-VIRTUALBOX\Mixed\G4\G4\C7H3N3\ARTEMIY\18-Jun-2022\0\\
 # g4 geom=gic\\Title Card Required\\0,1\C,0,-0.4585852113,-0.000000075
 6,-0.0162993881\C,0,0.5305277405,-0.0001178576,-1.2517028509\H,0,0.289
 8706168,-0.8836612921,-1.8511866686\H,0,0.290002871,0.8834070512,-1.85
 12702753\C,0,1.9215015537,-0.0001957992,-0.8420065882\C,0,-1.844721084
 4,-0.0000923278,-0.5277435732\C,0,-0.2413946799,-1.2081146798,0.805067
 8705\C,0,-0.2414003976,1.2082744537,0.8048455658\C,0,3.0667746965,-0.0
 00234785,-0.4835183331\H,0,4.0829196006,0.0001987053,-0.1716306048\N,0
 ,-0.0669898001,2.1670164699,1.4220318149\N,0,-2.9084787944,0.000230924
 6,-0.9743066988\N,0,-0.0668661113,-2.1667147875,1.42244173\\Version=ES
 64L-G16RevA.03\State=1-A\MP2/GTBas1=-431.3946049\MP4/GTBas1=-431.49822
 98\CCSD(T)/G3Bas1=-431.4836489\MP2/GTBas2=-431.41961\MP4/GTBas2=-431.5
 240166\MP2/GTBas3=-431.6511806\MP4/GTBas3=-431.7683603\HF/GTLargeXP=-4
 30.1802834\MP2/GTLargeXP=-432.2623212\HF/GFHFB1=-430.2112757\HF/GFHFB2
 =-430.2167369\G4=-432.4844861\FreqCoord=-0.8666004541,-0.0000001428,-0
 .0308013796,1.0025521309,-0.0002227185,-2.3653755775,0.5477760774,-1.6
 69877829,-3.4982358092,0.5480260014,1.6693973832,-3.4983938029,3.63111
 16845,-0.0003700069,-1.5911618468,-3.4860176257,-0.0001744743,-0.99729
 08174,-0.456169833,-2.2830058719,1.5213577869,-0.4561806379,2.28330780
 07,1.5209376919,5.7953642621,-0.0004436793,-0.9137172258,7.7155998337,
 0.0003754985,-0.3243348377,-0.1265923753,4.0950676355,2.6872506707,-5.
 4962283605,0.0004363842,-1.841172822,-0.1263586374,-4.0944975384,2.688
 0252979\PG=C01 [X(C7H3N3)]\NImag=0\\0.42328185,-0.00000045,0.48191413,
 0.06831564,-0.00001147,0.40225172,-0.07061634,0.00000147,0.01066889,0.
 48132715,0.00000124,-0.06782203,-0.00000202,0.00001441,0.57811731,0.01
 840864,-0.00000404,-0.09380673,0.09419503,-0.00001163,0.45020067,0.001
 23057,0.01626123,0.01316549,-0.05664309,-0.04894510,-0.03277489,0.0689
 1097,0.00006275,0.00059812,0.00197735,-0.04393331,-0.22299923,-0.11698
 595,0.05071307,0.23680551,-0.00051906,-0.02011540,-0.01835202,-0.03021
 459,-0.11406055,-0.12064868,0.03201102,0.12678109,0.13404767,0.0012284
 3,-0.01625955,0.01316586,-0.05662906,0.04891729,-0.03276141,0.00161142
 ,-0.00490175,0.00357648,0.06889434,-0.00006263,0.00060220,-0.00198151,
 0.04390534,-0.22299068,0.11700035,0.00489865,-0.01981283,0.01412687,-0
 .05068418,0.23679649,-0.00051594,0.02011360,-0.01835352,-0.03020116,0.
 11407434,-0.12066917,0.00357371,-0.01412481,0.01068152,0.03199662,-0.1
 2679414,0.13407026,-0.03756569,0.00000150,0.00535030,-0.26754493,0.000
 00300,-0.06600827,-0.01362925,-0.00406642,-0.00691228,-0.01362253,0.00
 406775,-0.00691092,1.35394228,0.00000334,-0.00133525,-0.00000005,0.000
 00972,-0.06631887,0.00000083,-0.02621726,0.00382194,-0.00565057,0.0262
 1478,0.00381752,0.00565110,-0.00001189,0.08431798,0.02091404,0.0000001
 4,0.01144340,-0.06359285,-0.00000241,-0.08475050,-0.01958679,0.0015709
 2,-0.00496185,-0.01958640,-0.00156844,-0.00496169,0.38245505,-0.000001
 34,0.20527862,-0.22431320,-0.00002222,-0.06542090,-0.03705345,0.000001
 16,0.00379469,0.00127038,0.00013357,-0.00146235,0.00127111,-0.00013372
 ,-0.00146281,-0.00278111,0.00000056,0.00396053,1.37407355,0.00000160,-
 0.06143663,0.00000269,0.00000197,0.00037754,0.00000080,0.00100554,0.00
 003307,-0.00019937,-0.00100541,0.00003286,0.00019924,0.00000013,0.0009
 7239,-0.00000046,-0.00029334,0.10125919,-0.06440317,-0.00000762,-0.085
 01091,0.01937341,0.00000058,0.01258129,0.00066179,-0.00029132,0.000239
 65,0.00066170,0.00029115,0.00023911,0.00497480,0.,-0.00374571,0.521650
 03,-0.00012468,0.31599005,-0.06572626,0.02402175,-0.01680350,0.0060296
 0,-0.01802202,0.01189347,0.00048527,0.00011440,-0.00070603,-0.00284084
 ,0.00064016,0.00363760,0.00093297,-0.00095612,0.00035874,-0.01259319,0
 .02991902,-0.02325091,0.13318049,0.02593839,-0.19122602,0.08510860,-0.
 00946554,-0.00205128,0.01274755,0.00062086,0.00098490,-0.00156369,0.00
 062564,-0.00002888,-0.00050515,0.00090862,-0.00013380,0.00015453,0.010
 25085,-0.00312614,0.00774195,-0.18615957,1.12580790,-0.01837597,0.0861
 7991,-0.11599218,0.00322669,0.02480048,-0.02553873,-0.00100979,0.00029
 787,0.00091177,0.00358340,-0.00032248,-0.00345781,-0.00160260,0.000195
 45,0.00084111,-0.00880511,0.01312406,-0.01241797,0.12074221,-0.6654286
 9,0.53424331,-0.06572611,-0.02401821,-0.01679413,0.00602985,0.01802343
 ,0.01188896,-0.00284078,-0.00063908,0.00363756,0.00048549,-0.00011443,
 -0.00070605,0.00093418,0.00095563,0.00035849,-0.01259634,-0.02991941,-
 0.02324320,0.00175624,0.00211301,0.00441071,0.13313868,-0.02594068,-0.
 19125132,-0.08509148,0.00946558,-0.00205724,-0.01275073,-0.00062528,-0
 .00002875,0.00050467,-0.00062106,0.00098528,0.00156384,-0.00090869,-0.
 00013410,-0.00015426,-0.01025253,-0.00313198,-0.00774286,-0.00211134,-
 0.04198026,-0.01235406,0.18608191,1.12609619,-0.01836895,-0.08615977,-
 0.11595732,0.00322537,-0.02480408,-0.02553103,0.00358385,0.00032159,-0
 .00345788,-0.00100966,-0.00029797,0.00091156,-0.00160205,-0.00019504,0
 .00084089,-0.00880458,-0.01312634,-0.01241245,0.00440932,0.01236540,0.
 01140961,0.12063685,0.66531957,0.53398098,0.00333082,0.00000005,-0.004
 74778,-0.00422686,0.00000879,-0.00319664,-0.00082070,0.00211411,0.0010
 5635,-0.00082423,-0.00211398,0.00105591,-1.02704088,0.00000587,-0.3077
 2288,-0.00041988,0.00000029,0.00011388,-0.00064650,0.00000826,0.000292
 80,-0.00064691,-0.00000842,0.00029264,1.42198147,-0.00000151,0.0000570
 1,0.00000128,0.00000206,0.00315988,0.00000323,0.00080786,0.00001125,-0
 .00031793,-0.00080505,0.00001178,0.00031627,-0.00001981,-0.02465677,-0
 .00000626,0.00000007,0.00004723,0.,-0.00005479,-0.00017561,0.00002282,
 0.00005434,-0.00017597,-0.00002294,0.00015670,0.04120936,0.00067106,-0
 .00000121,-0.00263086,-0.00283787,0.00000726,0.00224595,-0.00008838,0.
 00029550,0.00075681,-0.00009183,-0.00029640,0.00075626,-0.31004193,0.0
 0000018,-0.12276633,-0.00017745,0.00000019,-0.00006805,-0.00026642,0.0
 0020659,0.00006001,-0.00026713,-0.00020665,0.00005979,0.42512075,0.000
 04642,0.17908975,0.00035548,-0.00000021,0.00016328,0.00053506,-0.00000
 223,-0.00129600,0.00000223,0.00002254,-0.00009961,0.00000278,-0.000022
 57,-0.00009945,0.00778268,-0.00000422,0.00161491,0.00005345,-0.0000000
 1,-0.00019661,-0.00005794,-0.00004127,0.00003958,-0.00005786,0.0000412
 5,0.00003948,-0.39172252,-0.00014020,-0.11306314,0.38296189,0.00000065
 ,0.00025485,-0.00000045,-0.00000056,0.00676777,-0.00000125,0.00111344,
 -0.00011031,0.00024464,-0.00111426,-0.00011018,-0.00024380,0.00002544,
 -0.00052959,0.00000754,-0.00000004,-0.00006962,-0.00000004,0.00007382,
 -0.00000814,-0.00000371,-0.00007374,-0.00000787,0.00000386,-0.00017150
 ,-0.01986528,-0.00005181,0.00014689,0.01372962,-0.00106503,0.00000058,
 -0.00013332,-0.00152303,-0.00000259,0.00551062,0.00067730,-0.00013051,
 0.00016058,0.00067863,0.00013087,0.00016075,0.00127196,-0.00000057,0.0
 0226112,-0.00016368,-0.00000002,0.00026568,-0.00006445,-0.00000382,-0.
 00004961,-0.00006427,0.00000388,-0.00004944,-0.11253649,-0.00004269,-0
 .05782689,0.11284078,0.00004490,0.04983464,0.01431437,-0.00161885,-0.0
 0185090,-0.00230636,-0.00265641,-0.00038094,0.00068735,0.00032901,-0.0
 0063510,-0.00003144,0.00000985,-0.00003130,-0.00053180,0.00029526,0.00
 036423,0.00125190,0.00253151,0.00204208,0.00031957,-0.00071483,-0.0008
 3492,-0.05901610,-0.15602284,-0.10046341,0.00040190,0.00018752,0.00044
 114,0.00004987,-0.00003422,-0.00001729,0.04468939,-0.00017448,0.007884
 12,-0.00416830,-0.00360861,-0.00217952,0.00191682,0.00077606,0.0006619
 0,-0.00050762,0.00019715,-0.00003978,-0.00057910,0.00032834,0.00005125
 ,-0.00015891,-0.00009175,-0.00168498,-0.00122330,-0.00034473,0.0014403
 3,0.00023919,-0.15595385,-0.89043046,-0.55427152,-0.00001532,0.0001848
 1,0.00011283,-0.00000911,-0.00001780,0.00002302,0.15802667,0.88351640,
 -0.00070529,-0.00414864,0.01145490,-0.00086898,0.00108423,0.00235607,-
 0.00004178,0.00003819,0.00031340,0.00013742,0.00008520,0.00004069,0.00
 013660,-0.00006037,-0.00024048,-0.00014965,-0.00035751,0.00045123,-0.0
 0077246,-0.00354988,-0.00160053,-0.10011015,-0.55309525,-0.38920091,-0
 .00002023,-0.00001220,0.00005229,-0.00000271,0.00001063,-0.00002280,0.
 10163945,0.55917696,0.37639599,0.00589171,0.00001641,-0.00336185,0.003
 40528,-0.00000015,-0.00338124,-0.00023301,0.00006096,0.00029890,-0.000
 23285,-0.00006097,0.00029891,-0.00034422,-0.00000024,0.00009829,-1.089
 41465,0.00028967,-0.44042658,-0.00178607,-0.00018740,-0.00110645,-0.00
 177985,0.00018738,-0.00110410,0.00023254,0.00000007,0.00016016,0.00004
 501,-0.00000001,-0.00001725,0.00019611,0.00107166,0.00076586,1.0838229
 9,-0.00000683,0.01387339,-0.00000393,-0.00000062,0.00017581,0.00000068
 ,-0.00021197,0.00007414,0.00017864,0.00021214,0.00007415,-0.00017885,0
 .00000028,0.00007601,-0.00000003,0.00031490,-0.03158570,0.00013158,-0.
 00314653,0.00067463,-0.00110645,0.00314557,0.00067509,0.00110734,-0.00
 000020,0.00000764,-0.00000010,0.,-0.00001573,0.00000002,-0.00053454,0.
 00004541,-0.00016866,-0.00030672,0.01587901,-0.00364833,0.00000595,0.0
 1363358,-0.00058137,-0.00000013,-0.00430684,-0.00030898,0.00033533,0.0
 0026847,-0.00030915,-0.00033520,0.00026867,-0.00124735,-0.00000003,0.0
 0100199,-0.44280848,0.00012187,-0.21656266,0.00102460,-0.00045459,0.00
 100766,0.00102547,0.00045453,0.00100718,0.00031190,-0.00000009,0.00021
 912,0.00006223,0.00000005,-0.00008860,-0.00026509,0.00043729,0.0001786
 2,0.44700944,-0.00012819,0.20319442,0.01431436,0.00161709,-0.00185041,
 -0.00230684,0.00265660,-0.00038139,-0.00003137,-0.00000985,-0.00003129
 ,0.00068739,-0.00032926,-0.00063511,-0.00053172,-0.00029542,0.00036466
 ,0.00125141,-0.00253157,0.00204278,-0.05905334,0.15610297,-0.10056054,
 0.00031952,0.00071472,-0.00083476,0.00040175,-0.00018727,0.00044103,0.
 00004987,0.00003410,-0.00001716,-0.00002476,-0.00020202,-0.00000810,0.
 00019700,0.00053450,-0.00026489,0.04472674,0.00017862,0.00788743,0.004
 16930,0.00360810,-0.00217944,-0.00191666,-0.00019710,-0.00003971,0.000
 57921,-0.00077574,0.00066206,0.00050746,-0.00032825,0.00005129,0.00015
 897,0.00009249,-0.00168723,0.00122459,0.15602594,-0.89017764,0.5543556
 2,0.00034483,0.00144139,-0.00024010,0.00001534,0.00018467,-0.00011280,
 0.00000912,-0.00001770,-0.00002307,0.00020188,0.00056831,0.00099729,-0
 .00107066,0.00004615,-0.00043679,-0.15810458,0.88326040,-0.00070764,0.
 00414797,0.01145325,-0.00086953,-0.00108348,0.00235707,0.00013746,-0.0
 0008523,0.00004055,-0.00004167,-0.00003831,0.00031334,0.00013668,0.000
 06042,-0.00024056,-0.00015023,0.00035954,0.00045072,-0.10020217,0.5531
 8120,-0.38941665,-0.00077312,0.00354881,-0.00160099,-0.00002020,0.0000
 1209,0.00005216,-0.00000274,-0.00001057,-0.00002274,-0.00000795,-0.000
 99734,-0.00017847,0.00076591,0.00016792,0.00017839,0.10173519,-0.55926
 302,0.37661393\\0.00007677,0.00001166,0.00000636,-0.00001578,0.0000064
 2,0.00005661,0.00000371,0.00000125,-0.00001568,0.00000357,-0.00000020,
 -0.00001751,0.00002572,-0.00000196,-0.00000856,0.00005021,-0.00002861,
 -0.00001739,-0.00005713,-0.00001285,-0.00004183,-0.00004220,0.00001680
 ,-0.00003563,-0.00005754,-0.00001756,0.00000719,0.00001336,0.00001246,
 -0.00001106,0.00002156,0.00002009,0.00003654,-0.00004865,0.00001239,0.
 00000369,0.00002640,-0.00001988,0.00003726\\\@
 Job cpu time:       0 days  8 hours 38 minutes 57.0 seconds.
 Elapsed time:       0 days  1 hours 26 minutes 31.0 seconds.
 File lengths (MBytes):  RWF=  51057 Int=      0 D2E=      0 Chk=     79 Scr=      1
 Normal termination of Gaussian 16 at Sat Jun 18 00:04:53 2022.
