 Entering Gaussian System, Link 0=/home/artemiy/opt/gaussian/g16/g16
 Input=1,1,1,5,5,5-Hexafluoro-2,4-pentanedione_enol_G4_after M06.gjf
 Output=1,1,1,5,5,5-Hexafluoro-2,4-pentanedione_enol_G4_after M06.log
 Initial command:
 /home/artemiy/opt/gaussian/g16/l1.exe "/home/artemiy/opt/gaussian/scr/Gau-1797.inp" -scrdir="/home/artemiy/opt/gaussian/scr/"
 Entering Link 1 = /home/artemiy/opt/gaussian/g16/l1.exe PID=      1799.
  
 Copyright (c) 1988,1990,1992,1993,1995,1998,2003,2009,2016,
            Gaussian, Inc.  All Rights Reserved.
  
 This is part of the Gaussian(R) 16 program.  It is based on
 the Gaussian(R) 09 system (copyright 2009, Gaussian, Inc.),
 the Gaussian(R) 03 system (copyright 2003, Gaussian, Inc.),
 the Gaussian(R) 98 system (copyright 1998, Gaussian, Inc.),
 the Gaussian(R) 94 system (copyright 1995, Gaussian, Inc.),
 the Gaussian 92(TM) system (copyright 1992, Gaussian, Inc.),
 the Gaussian 90(TM) system (copyright 1990, Gaussian, Inc.),
 the Gaussian 88(TM) system (copyright 1988, Gaussian, Inc.),
 the Gaussian 86(TM) system (copyright 1986, Carnegie Mellon
 University), and the Gaussian 82(TM) system (copyright 1983,
 Carnegie Mellon University). Gaussian is a federally registered
 trademark of Gaussian, Inc.
  
 This software contains proprietary and confidential information,
 including trade secrets, belonging to Gaussian, Inc.
  
 This software is provided under written license and may be
 used, copied, transmitted, or stored only in accord with that
 written license.
  
 The following legend is applicable only to US Government
 contracts under FAR:
  
                    RESTRICTED RIGHTS LEGEND
  
 Use, reproduction and disclosure by the US Government is
 subject to restrictions as set forth in subparagraphs (a)
 and (c) of the Commercial Computer Software - Restricted
 Rights clause in FAR 52.227-19.
  
 Gaussian, Inc.
 340 Quinnipiac St., Bldg. 40, Wallingford CT 06492
  
  
 ---------------------------------------------------------------
 Warning -- This program may not be used in any manner that
 competes with the business of Gaussian, Inc. or will provide
 assistance to any competitor of Gaussian, Inc.  The licensee
 of this program is prohibited from giving any competitor of
 Gaussian, Inc. access to this program.  By using this program,
 the user acknowledges that Gaussian, Inc. is engaged in the
 business of creating and licensing software in the field of
 computational chemistry and represents and warrants to the
 licensee that it is not a competitor of Gaussian, Inc. and that
 it will not use this program in any manner prohibited above.
 ---------------------------------------------------------------
  

 Cite this work as:
 Gaussian 16, Revision A.03,
 M. J. Frisch, G. W. Trucks, H. B. Schlegel, G. E. Scuseria, 
 M. A. Robb, J. R. Cheeseman, G. Scalmani, V. Barone, 
 G. A. Petersson, H. Nakatsuji, X. Li, M. Caricato, A. V. Marenich, 
 J. Bloino, B. G. Janesko, R. Gomperts, B. Mennucci, H. P. Hratchian, 
 J. V. Ortiz, A. F. Izmaylov, J. L. Sonnenberg, D. Williams-Young, 
 F. Ding, F. Lipparini, F. Egidi, J. Goings, B. Peng, A. Petrone, 
 T. Henderson, D. Ranasinghe, V. G. Zakrzewski, J. Gao, N. Rega, 
 G. Zheng, W. Liang, M. Hada, M. Ehara, K. Toyota, R. Fukuda, 
 J. Hasegawa, M. Ishida, T. Nakajima, Y. Honda, O. Kitao, H. Nakai, 
 T. Vreven, K. Throssell, J. A. Montgomery, Jr., J. E. Peralta, 
 F. Ogliaro, M. J. Bearpark, J. J. Heyd, E. N. Brothers, K. N. Kudin, 
 V. N. Staroverov, T. A. Keith, R. Kobayashi, J. Normand, 
 K. Raghavachari, A. P. Rendell, J. C. Burant, S. S. Iyengar, 
 J. Tomasi, M. Cossi, J. M. Millam, M. Klene, C. Adamo, R. Cammi, 
 J. W. Ochterski, R. L. Martin, K. Morokuma, O. Farkas, 
 J. B. Foresman, and D. J. Fox, Gaussian, Inc., Wallingford CT, 2016.
 
 ******************************************
 Gaussian 16:  ES64L-G16RevA.03 25-Dec-2016
                25-Nov-2021 
 ******************************************
 %mem=47GB
 %nprocshared=7
 Will use up to    7 processors via shared memory.
 -------------
 # g4 geom=gic
 -------------
 1/18=20,19=15,26=3,38=1,145=2/1,3;
 2/9=110,12=2,17=6,18=5,40=1/2;
 3/5=35,7=104,11=2,25=1,30=1,71=1,74=-5/1,2,3;
 4//1;
 5/5=2,38=5/2;
 6/7=2,8=2,9=2,10=2,28=1/1;
 7//1,2,3,16;
 1/18=20,19=15,26=3,145=2/3(2);
 2/9=110/2;
 99//99;
 2/9=110/2;
 3/5=35,7=104,11=2,25=1,30=1,71=1,74=-5/1,2,3;
 4/5=5,16=3,69=1/1;
 5/5=2,38=5/2;
 7//1,2,3,16;
 1/18=20,19=15,26=3,145=2/3(-5);
 2/9=110/2;
 6/7=2,8=2,9=2,10=2,19=2,28=1/1;
 99/9=1/99;
 -------------------
 CAS 1522-22-1
 -------------------
 Symbolic Z-matrix:
 Charge =  0 Multiplicity = 1
 C                     2.5011    0.2834    0.00023 
 F                     3.20077  -0.05155  -1.07224 
 F                     3.20053  -0.05136   1.0729 
 F                     2.33895   1.59574   0.00009 
 C                     1.16781  -0.44089   0.00014 
 C                    -0.01433   0.21156  -0.00009 
 C                    -1.22572  -0.55852  -0.00017 
 O                    -1.27747  -1.77424  -0.00004 
 C                    -2.53594   0.25478  -0.00041 
 F                    -2.57635   1.03781   1.07417 
 F                    -2.57597   1.03785  -1.07497 
 F                    -3.59319  -0.51903  -0.00061 
 H                    -0.04512   1.28928  -0.00022 
 O                     1.32659  -1.73679   0.0003 
 H                     0.43037  -2.15104   0.00023 
 
 Initializing the GIC definitions file.

 GradGradGradGradGradGradGradGradGradGradGradGradGradGradGradGradGradGrad
 Berny optimization.
 Initialization pass.
                           ----------------------------
                           !    Initial Parameters    !
                           ! (Angstroms and Degrees)  !
 --------------------------                            --------------------------
 ! Name  Definition              Value          Derivative Info.                !
 --------------------------------------------------------------------------------
 ! R1    R(1,2)                  1.3236         estimate D2E/DX2                !
 ! R2    R(1,3)                  1.3236         estimate D2E/DX2                !
 ! R3    R(1,4)                  1.3223         estimate D2E/DX2                !
 ! R4    R(1,5)                  1.5173         estimate D2E/DX2                !
 ! R5    R(5,6)                  1.3502         estimate D2E/DX2                !
 ! R6    R(5,14)                 1.3056         estimate D2E/DX2                !
 ! R7    R(6,7)                  1.4354         estimate D2E/DX2                !
 ! R8    R(6,13)                 1.0782         estimate D2E/DX2                !
 ! R9    R(7,8)                  1.2168         estimate D2E/DX2                !
 ! R10   R(7,9)                  1.5421         estimate D2E/DX2                !
 ! R11   R(9,10)                 1.3302         estimate D2E/DX2                !
 ! R12   R(9,11)                 1.3302         estimate D2E/DX2                !
 ! R13   R(9,12)                 1.3102         estimate D2E/DX2                !
 ! R14   R(14,15)                0.9873         estimate D2E/DX2                !
 ! A1    A(2,1,3)              108.2595         estimate D2E/DX2                !
 ! A2    A(2,1,4)              108.4143         estimate D2E/DX2                !
 ! A3    A(2,1,5)              110.1            estimate D2E/DX2                !
 ! A4    A(3,1,4)              108.4143         estimate D2E/DX2                !
 ! A5    A(3,1,5)              110.1            estimate D2E/DX2                !
 ! A6    A(4,1,5)              111.4688         estimate D2E/DX2                !
 ! A7    A(1,5,6)              122.5925         estimate D2E/DX2                !
 ! A8    A(1,5,14)             111.5268         estimate D2E/DX2                !
 ! A9    A(6,5,14)             125.8807         estimate D2E/DX2                !
 ! A10   A(5,6,7)              118.6606         estimate D2E/DX2                !
 ! A11   A(5,6,13)             120.5319         estimate D2E/DX2                !
 ! A12   A(7,6,13)             120.8075         estimate D2E/DX2                !
 ! A13   A(6,7,8)              124.8817         estimate D2E/DX2                !
 ! A14   A(6,7,9)              115.7262         estimate D2E/DX2                !
 ! A15   A(8,7,9)              119.3922         estimate D2E/DX2                !
 ! A16   A(7,9,10)             109.6418         estimate D2E/DX2                !
 ! A17   A(7,9,11)             109.6432         estimate D2E/DX2                !
 ! A18   A(7,9,12)             111.9695         estimate D2E/DX2                !
 ! A19   A(10,9,11)            107.7656         estimate D2E/DX2                !
 ! A20   A(10,9,12)            108.8611         estimate D2E/DX2                !
 ! A21   A(11,9,12)            108.8609         estimate D2E/DX2                !
 ! A22   A(5,14,15)            107.8221         estimate D2E/DX2                !
 ! D1    D(2,1,5,6)           -120.3543         estimate D2E/DX2                !
 ! D2    D(2,1,5,14)            59.6453         estimate D2E/DX2                !
 ! D3    D(3,1,5,6)            120.3578         estimate D2E/DX2                !
 ! D4    D(3,1,5,14)           -59.6427         estimate D2E/DX2                !
 ! D5    D(4,1,5,6)              0.0018         estimate D2E/DX2                !
 ! D6    D(4,1,5,14)          -179.9987         estimate D2E/DX2                !
 ! D7    D(1,5,6,7)            179.9996         estimate D2E/DX2                !
 ! D8    D(1,5,6,13)            -0.0002         estimate D2E/DX2                !
 ! D9    D(14,5,6,7)             0.0001         estimate D2E/DX2                !
 ! D10   D(14,5,6,13)         -179.9997         estimate D2E/DX2                !
 ! D11   D(1,5,14,15)         -179.9997         estimate D2E/DX2                !
 ! D12   D(6,5,14,15)           -0.0002         estimate D2E/DX2                !
 ! D13   D(5,6,7,8)              0.0            estimate D2E/DX2                !
 ! D14   D(5,6,7,9)            179.9992         estimate D2E/DX2                !
 ! D15   D(13,6,7,8)           179.9997         estimate D2E/DX2                !
 ! D16   D(13,6,7,9)            -0.0011         estimate D2E/DX2                !
 ! D17   D(6,7,9,10)           -59.0694         estimate D2E/DX2                !
 ! D18   D(6,7,9,11)            59.0548         estimate D2E/DX2                !
 ! D19   D(6,7,9,12)           179.993          estimate D2E/DX2                !
 ! D20   D(8,7,9,10)           120.9298         estimate D2E/DX2                !
 ! D21   D(8,7,9,11)          -120.946          estimate D2E/DX2                !
 ! D22   D(8,7,9,12)            -0.0077         estimate D2E/DX2                !
 --------------------------------------------------------------------------------
 Trust Radius=3.00D-01 FncErr=1.00D-07 GrdErr=1.00D-06 EigMax=2.50D+02 EigMin=1.00D-04
 Number of steps in this run=     68 maximum allowed number of steps=    100.
 GradGradGradGradGradGradGradGradGradGradGradGradGradGradGradGradGradGrad

                          Input orientation:                          
 ---------------------------------------------------------------------
 Center     Atomic      Atomic             Coordinates (Angstroms)
 Number     Number       Type             X           Y           Z
 ---------------------------------------------------------------------
      1          6           0        2.501095    0.283396    0.000225
      2          9           0        3.200769   -0.051550   -1.072236
      3          9           0        3.200525   -0.051360    1.072905
      4          9           0        2.338949    1.595735    0.000091
      5          6           0        1.167809   -0.440888    0.000137
      6          6           0       -0.014330    0.211559   -0.000090
      7          6           0       -1.225721   -0.558524   -0.000166
      8          8           0       -1.277471   -1.774235   -0.000041
      9          6           0       -2.535936    0.254782   -0.000407
     10          9           0       -2.576353    1.037815    1.074168
     11          9           0       -2.575969    1.037850   -1.074967
     12          9           0       -3.593186   -0.519034   -0.000611
     13          1           0       -0.045124    1.289284   -0.000215
     14          8           0        1.326592   -1.736788    0.000297
     15          1           0        0.430369   -2.151045    0.000225
 ---------------------------------------------------------------------
                    Distance matrix (angstroms):
                    1          2          3          4          5
     1  C    0.000000
     2  F    1.323596   0.000000
     3  F    1.323596   2.145141   0.000000
     4  F    1.322318   2.146198   2.146198   0.000000
     5  C    1.517313   2.331200   2.331201   2.349341   0.000000
     6  C    2.516451   3.399351   3.399373   2.730177   1.350237
     7  C    3.820731   4.582594   4.582614   4.165058   2.396419
     8  O    4.302488   4.916491   4.916499   4.943196   2.785177
     9  C    5.037112   5.844009   5.844032   5.055953   3.768512
    10  F    5.244328   6.258507   5.878658   5.062125   4.166396
    11  F    5.244218   5.878563   6.258404   5.061957   4.166340
    12  F    6.146882   6.893819   6.893886   6.297815   4.761636
    13  H    2.737707   3.671905   3.671941   2.403688   2.112984
    14  O    2.336793   2.739141   2.739120   3.482898   1.305591
    15  H    3.195999   3.637742   3.637731   4.204883   1.862379
                    6          7          8          9         10
     6  C    0.000000
     7  C    1.435443   0.000000
     8  O    2.353487   1.216812   0.000000
     9  C    2.521976   1.542119   2.387602   0.000000
    10  F    2.898395   2.350893   3.278513   1.330220   0.000000
    11  F    2.898295   2.350910   3.278625   1.330217   2.149135
    12  F    3.652667   2.367794   2.634021   1.310179   2.147761
    13  H    1.078165   2.192762   3.302094   2.697098   2.761278
    14  O    2.365191   2.811158   2.604332   4.345742   4.907606
    15  H    2.404091   2.297555   1.748915   3.819289   4.512489
                   11         12         13         14         15
    11  F    0.000000
    12  F    2.147757   0.000000
    13  H    2.761066   3.982306   0.000000
    14  O    4.907626   5.068248   3.322456   0.000000
    15  H    4.512556   4.341941   3.473033   0.987332   0.000000
 Stoichiometry    C5H2F6O2
 Framework group  C1[X(C5H2F6O2)]
 Deg. of freedom    39
 Full point group                 C1      NOp   1
 Largest Abelian subgroup         C1      NOp   1
 Largest concise Abelian subgroup C1      NOp   1
                         Standard orientation:                         
 ---------------------------------------------------------------------
 Center     Atomic      Atomic             Coordinates (Angstroms)
 Number     Number       Type             X           Y           Z
 ---------------------------------------------------------------------
      1          6           0       -2.499828   -0.316021    0.000280
      2          9           0       -3.199929    0.018033   -1.072181
      3          9           0       -3.199684    0.017843    1.072960
      4          9           0       -2.336010   -1.628153    0.000146
      5          6           0       -1.167466    0.409961    0.000192
      6          6           0        0.015503   -0.240980   -0.000035
      7          6           0        1.225912    0.530646   -0.000111
      8          8           0        1.276113    1.746422    0.000014
      9          6           0        2.537162   -0.280990   -0.000352
     10          9           0        2.578577   -1.063971    1.074223
     11          9           0        2.578193   -1.064006   -1.074912
     12          9           0        3.593425    0.494173   -0.000556
     13          1           0        0.047670   -1.318664   -0.000160
     14          8           0       -1.327900    1.705657    0.000352
     15          1           0       -0.432206    2.121056    0.000280
 ---------------------------------------------------------------------
 Rotational constants (GHZ):           1.7109468           0.3830669           0.3510786
 Standard basis: GTBas3 (6D, 7F)
 There are   413 symmetry adapted cartesian basis functions of A   symmetry.
 There are   374 symmetry adapted basis functions of A   symmetry.
   374 basis functions,   586 primitive gaussians,   413 cartesian basis functions
    51 alpha electrons       51 beta electrons
       nuclear repulsion energy       889.9546274667 Hartrees.
 NAtoms=   15 NActive=   15 NUniq=   15 SFac= 1.00D+00 NAtFMM=   60 NAOKFM=F Big=F
 Integral buffers will be    131072 words long.
 Raffenetti 2 integral format.
 Two-electron integral symmetry is turned on.
 One-electron integrals computed using PRISM.
 NBasis=   374 RedAO= T EigKep=  2.94D-04  NBF=   374
 NBsUse=   374 1.00D-06 EigRej= -1.00D+00 NBFU=   374
 ExpMin= 1.61D-01 ExpMax= 7.00D+03 ExpMxC= 1.05D+03 IAcc=3 IRadAn=         5 AccDes= 0.00D+00
 Harris functional with IExCor=  402 and IRadAn=       5 diagonalized for initial guess.
 HarFok:  IExCor=  402 AccDes= 0.00D+00 IRadAn=         5 IDoV= 1 UseB2=F ITyADJ=14
 ICtDFT=  3500011 ScaDFX=  1.000000  1.000000  1.000000  1.000000
 FoFCou: FMM=F IPFlag=           0 FMFlag=      100000 FMFlg1=           0
         NFxFlg=           0 DoJE=T BraDBF=F KetDBF=T FulRan=T
         wScrn=  0.000000 ICntrl=       500 IOpCl=  0 I1Cent=   200000004 NGrid=           0
         NMat0=    1 NMatS0=      1 NMatT0=    0 NMatD0=    1 NMtDS0=    0 NMtDT0=    0
 Petite list used in FoFCou.
 Requested convergence on RMS density matrix=1.00D-08 within 128 cycles.
 Requested convergence on MAX density matrix=1.00D-06.
 Requested convergence on             energy=1.00D-06.
 No special actions if energy rises.
 Integral accuracy reduced to 1.0D-05 until final iterations.
 Initial convergence to 1.0D-05 achieved.  Increase integral accuracy.
 SCF Done:  E(RB3LYP) =  -941.272783591     A.U. after   14 cycles
            NFock= 14  Conv=0.48D-08     -V/T= 2.0055

 **********************************************************************

            Population analysis using the SCF density.

 **********************************************************************

 Orbital symmetries:
       Occupied  (A) (A) (A) (A) (A) (A) (A) (A) (A) (A) (A) (A)
                 (A) (A) (A) (A) (A) (A) (A) (A) (A) (A) (A) (A)
                 (A) (A) (A) (A) (A) (A) (A) (A) (A) (A) (A) (A)
                 (A) (A) (A) (A) (A) (A) (A) (A) (A) (A) (A) (A)
                 (A) (A) (A)
       Virtual   (A) (A) (A) (A) (A) (A) (A) (A) (A) (A) (A) (A)
                 (A) (A) (A) (A) (A) (A) (A) (A) (A) (A) (A) (A)
                 (A) (A) (A) (A) (A) (A) (A) (A) (A) (A) (A) (A)
                 (A) (A) (A) (A) (A) (A) (A) (A) (A) (A) (A) (A)
                 (A) (A) (A) (A) (A) (A) (A) (A) (A) (A) (A) (A)
                 (A) (A) (A) (A) (A) (A) (A) (A) (A) (A) (A) (A)
                 (A) (A) (A) (A) (A) (A) (A) (A) (A) (A) (A) (A)
                 (A) (A) (A) (A) (A) (A) (A) (A) (A) (A) (A) (A)
                 (A) (A) (A) (A) (A) (A) (A) (A) (A) (A) (A) (A)
                 (A) (A) (A) (A) (A) (A) (A) (A) (A) (A) (A) (A)
                 (A) (A) (A) (A) (A) (A) (A) (A) (A) (A) (A) (A)
                 (A) (A) (A) (A) (A) (A) (A) (A) (A) (A) (A) (A)
                 (A) (A) (A) (A) (A) (A) (A) (A) (A) (A) (A) (A)
                 (A) (A) (A) (A) (A) (A) (A) (A) (A) (A) (A) (A)
                 (A) (A) (A) (A) (A) (A) (A) (A) (A) (A) (A) (A)
                 (A) (A) (A) (A) (A) (A) (A) (A) (A) (A) (A) (A)
                 (A) (A) (A) (A) (A) (A) (A) (A) (A) (A) (A) (A)
                 (A) (A) (A) (A) (A) (A) (A) (A) (A) (A) (A) (A)
                 (A) (A) (A) (A) (A) (A) (A) (A) (A) (A) (A) (A)
                 (A) (A) (A) (A) (A) (A) (A) (A) (A) (A) (A) (A)
                 (A) (A) (A) (A) (A) (A) (A) (A) (A) (A) (A) (A)
                 (A) (A) (A) (A) (A) (A) (A) (A) (A) (A) (A) (A)
                 (A) (A) (A) (A) (A) (A) (A) (A) (A) (A) (A) (A)
                 (A) (A) (A) (A) (A) (A) (A) (A) (A) (A) (A) (A)
                 (A) (A) (A) (A) (A) (A) (A) (A) (A) (A) (A) (A)
                 (A) (A) (A) (A) (A) (A) (A) (A) (A) (A) (A) (A)
                 (A) (A) (A) (A) (A) (A) (A) (A) (A) (A) (A)
 The electronic state is 1-A.
 Alpha  occ. eigenvalues --  -24.74845 -24.74246 -24.74245 -24.74029 -24.74029
 Alpha  occ. eigenvalues --  -24.74026 -19.21902 -19.17920 -10.44715 -10.43562
 Alpha  occ. eigenvalues --  -10.31140 -10.31083 -10.21941  -1.34217  -1.33648
 Alpha  occ. eigenvalues --   -1.25059  -1.24623  -1.24551  -1.24171  -1.12876
 Alpha  occ. eigenvalues --   -1.08639  -0.83751  -0.77423  -0.73647  -0.67758
 Alpha  occ. eigenvalues --   -0.65532  -0.61761  -0.61344  -0.60880  -0.60845
 Alpha  occ. eigenvalues --   -0.59296  -0.55426  -0.52440  -0.49628  -0.49025
 Alpha  occ. eigenvalues --   -0.48311  -0.48258  -0.47757  -0.46820  -0.45115
 Alpha  occ. eigenvalues --   -0.44977  -0.44159  -0.43416  -0.42691  -0.42376
 Alpha  occ. eigenvalues --   -0.42225  -0.42015  -0.41363  -0.39773  -0.29931
 Alpha  occ. eigenvalues --   -0.28713
 Alpha virt. eigenvalues --   -0.09526   0.02776   0.08706   0.11924   0.14660
 Alpha virt. eigenvalues --    0.15849   0.20365   0.20761   0.20977   0.21498
 Alpha virt. eigenvalues --    0.22620   0.23800   0.26382   0.28628   0.32117
 Alpha virt. eigenvalues --    0.35256   0.37433   0.38152   0.40485   0.40771
 Alpha virt. eigenvalues --    0.41189   0.43911   0.45690   0.47174   0.49968
 Alpha virt. eigenvalues --    0.52050   0.54586   0.54683   0.55280   0.57568
 Alpha virt. eigenvalues --    0.61480   0.62065   0.64447   0.64534   0.66106
 Alpha virt. eigenvalues --    0.67924   0.69991   0.72049   0.72847   0.73515
 Alpha virt. eigenvalues --    0.76153   0.81023   0.82674   0.83462   0.83557
 Alpha virt. eigenvalues --    0.84114   0.85441   0.85835   0.87091   0.87625
 Alpha virt. eigenvalues --    0.88790   0.90252   0.91798   0.92264   0.93297
 Alpha virt. eigenvalues --    0.94278   0.95287   0.96333   0.96708   0.97030
 Alpha virt. eigenvalues --    0.99073   0.99367   0.99598   0.99695   1.01726
 Alpha virt. eigenvalues --    1.02340   1.04375   1.04946   1.05169   1.05460
 Alpha virt. eigenvalues --    1.08956   1.10126   1.10211   1.12779   1.15773
 Alpha virt. eigenvalues --    1.16112   1.17613   1.18109   1.19616   1.20394
 Alpha virt. eigenvalues --    1.20642   1.25025   1.28645   1.29242   1.31366
 Alpha virt. eigenvalues --    1.34215   1.34455   1.36136   1.37799   1.40197
 Alpha virt. eigenvalues --    1.40279   1.41686   1.43492   1.44895   1.46346
 Alpha virt. eigenvalues --    1.48629   1.50640   1.53836   1.54901   1.55267
 Alpha virt. eigenvalues --    1.56338   1.56663   1.58676   1.63036   1.63047
 Alpha virt. eigenvalues --    1.67097   1.68169   1.68802   1.70798   1.73947
 Alpha virt. eigenvalues --    1.76493   1.78143   1.78236   1.80216   1.80611
 Alpha virt. eigenvalues --    1.83967   1.86188   1.89559   1.93381   1.94468
 Alpha virt. eigenvalues --    1.95912   2.00520   2.02973   2.03094   2.08782
 Alpha virt. eigenvalues --    2.13498   2.18582   2.22271   2.22950   2.25336
 Alpha virt. eigenvalues --    2.27024   2.30587   2.35449   2.37010   2.39724
 Alpha virt. eigenvalues --    2.43788   2.50423   2.53336   2.71277   2.76348
 Alpha virt. eigenvalues --    2.84559   2.85318   2.88493   2.89570   2.91703
 Alpha virt. eigenvalues --    2.93999   3.03020   3.05306   3.06760   3.07951
 Alpha virt. eigenvalues --    3.09338   3.12382   3.13056   3.15108   3.17299
 Alpha virt. eigenvalues --    3.18327   3.20363   3.23954   3.25197   3.26786
 Alpha virt. eigenvalues --    3.31674   3.31894   3.40719   3.42086   3.47399
 Alpha virt. eigenvalues --    3.48708   3.52728   3.53000   3.55170   3.67083
 Alpha virt. eigenvalues --    3.73845   3.75291   3.75568   3.78731   3.79581
 Alpha virt. eigenvalues --    3.85096   3.88783   3.90679   3.92704   3.96573
 Alpha virt. eigenvalues --    4.00421   4.02521   4.05310   4.05452   4.06126
 Alpha virt. eigenvalues --    4.11475   4.11812   4.12098   4.12845   4.14779
 Alpha virt. eigenvalues --    4.15078   4.16397   4.16674   4.18487   4.18596
 Alpha virt. eigenvalues --    4.19824   4.21309   4.21922   4.22023   4.23149
 Alpha virt. eigenvalues --    4.23430   4.24487   4.24698   4.25752   4.29882
 Alpha virt. eigenvalues --    4.33445   4.33469   4.35431   4.36846   4.37414
 Alpha virt. eigenvalues --    4.40127   4.42780   4.43942   4.45027   4.48512
 Alpha virt. eigenvalues --    4.49470   4.53556   4.54597   4.56051   4.57148
 Alpha virt. eigenvalues --    4.58894   4.59384   4.60702   4.61723   4.64388
 Alpha virt. eigenvalues --    4.66058   4.67219   4.69089   4.70810   4.72570
 Alpha virt. eigenvalues --    4.73396   4.74929   4.76199   4.80832   4.83215
 Alpha virt. eigenvalues --    4.84068   4.87312   4.88854   4.91370   4.93633
 Alpha virt. eigenvalues --    5.01899   5.04602   5.05956   5.09447   5.12711
 Alpha virt. eigenvalues --    5.13695   5.15793   5.25775   5.28428   5.42874
 Alpha virt. eigenvalues --    5.45402   5.49556   5.52111   5.58220   5.64536
 Alpha virt. eigenvalues --    5.70583   5.79241   5.88694   5.91548   5.99761
 Alpha virt. eigenvalues --    6.20649   6.31010   6.34040   6.44379   6.57536
 Alpha virt. eigenvalues --    6.58216   6.58851   6.58911   6.59230   6.59240
 Alpha virt. eigenvalues --    6.59524   6.59573   6.59698   6.60000   6.60840
 Alpha virt. eigenvalues --    6.61171   6.62136   6.62412   6.63942   6.66387
 Alpha virt. eigenvalues --    6.66499   6.73510   6.74475   6.77689   6.78920
 Alpha virt. eigenvalues --    6.79595   6.81176   6.83897   6.92730   6.95286
 Alpha virt. eigenvalues --    6.95587   7.14597   7.18568   7.19833   7.22524
 Alpha virt. eigenvalues --    7.24203   7.25900   7.29825   7.39761   7.39981
 Alpha virt. eigenvalues --    7.43046   7.43511   7.44398   7.45347   7.49758
 Alpha virt. eigenvalues --    7.51009   7.57133   7.58068   8.00771   8.24275
 Alpha virt. eigenvalues --    9.55889   9.63643   9.63697   9.64678   9.71684
 Alpha virt. eigenvalues --    9.80512  10.34317  11.15476  11.61074  12.26324
 Alpha virt. eigenvalues --   12.44545  13.36043  13.57294
          Condensed to atoms (all electrons):
               1          2          3          4          5          6
     1  C    4.189558   0.445298   0.445298   0.485780   0.188107  -0.005519
     2  F    0.445298   8.722883  -0.047755  -0.041901  -0.023705   0.001543
     3  F    0.445298  -0.047755   8.722883  -0.041901  -0.023704   0.001543
     4  F    0.485780  -0.041901  -0.041901   8.693186  -0.067329   0.013063
     5  C    0.188107  -0.023705  -0.023704  -0.067329   5.065019   0.265620
     6  C   -0.005519   0.001543   0.001543   0.013063   0.265620   5.701349
     7  C    0.002618  -0.000090  -0.000090   0.000778   0.008205   0.138852
     8  O    0.000264   0.000000   0.000000  -0.000000  -0.004162  -0.070470
     9  C   -0.000081  -0.000000  -0.000000  -0.000005  -0.001958  -0.027627
    10  F   -0.000002   0.000000   0.000000   0.000000   0.000503   0.008717
    11  F   -0.000002   0.000000   0.000000   0.000000   0.000504   0.008719
    12  F    0.000000   0.000000   0.000000   0.000000  -0.000086   0.003064
    13  H   -0.002391   0.000208   0.000208   0.009197  -0.032200   0.364609
    14  O   -0.006773  -0.003529  -0.003529   0.000307   0.451365  -0.043201
    15  H    0.001968  -0.000105  -0.000105  -0.000022  -0.044721  -0.016139
               7          8          9         10         11         12
     1  C    0.002618   0.000264  -0.000081  -0.000002  -0.000002   0.000000
     2  F   -0.000090   0.000000  -0.000000   0.000000   0.000000   0.000000
     3  F   -0.000090   0.000000  -0.000000   0.000000   0.000000   0.000000
     4  F    0.000778  -0.000000  -0.000005   0.000000   0.000000   0.000000
     5  C    0.008205  -0.004162  -0.001958   0.000503   0.000504  -0.000086
     6  C    0.138852  -0.070470  -0.027627   0.008717   0.008719   0.003064
     7  C    4.843801   0.677052   0.255328  -0.047237  -0.047243  -0.030856
     8  O    0.677052   7.760933  -0.026077  -0.000193  -0.000192  -0.002034
     9  C    0.255328  -0.026077   4.241813   0.424457   0.424461   0.487194
    10  F   -0.047237  -0.000193   0.424457   8.764926  -0.046036  -0.040755
    11  F   -0.047243  -0.000192   0.424461  -0.046036   8.764918  -0.040754
    12  F   -0.030856  -0.002034   0.487194  -0.040755  -0.040754   8.656648
    13  H   -0.027670   0.002091   0.005624   0.001377   0.001379   0.000123
    14  O   -0.005961  -0.027729   0.000115  -0.000000  -0.000000   0.000000
    15  H   -0.002139   0.065966   0.000639  -0.000013  -0.000013   0.000000
              13         14         15
     1  C   -0.002391  -0.006773   0.001968
     2  F    0.000208  -0.003529  -0.000105
     3  F    0.000208  -0.003529  -0.000105
     4  F    0.009197   0.000307  -0.000022
     5  C   -0.032200   0.451365  -0.044721
     6  C    0.364609  -0.043201  -0.016139
     7  C   -0.027670  -0.005961  -0.002139
     8  O    0.002091  -0.027729   0.065966
     9  C    0.005624   0.000115   0.000639
    10  F    0.001377  -0.000000  -0.000013
    11  F    0.001379  -0.000000  -0.000013
    12  F    0.000123   0.000000   0.000000
    13  H    0.527822   0.001959  -0.000228
    14  O    0.001959   7.711234   0.296806
    15  H   -0.000228   0.296806   0.359674
 Mulliken charges:
               1
     1  C    0.255878
     2  F   -0.052847
     3  F   -0.052848
     4  F   -0.051152
     5  C    0.218542
     6  C   -0.344122
     7  C    0.234653
     8  O   -0.375449
     9  C    0.216117
    10  F   -0.065744
    11  F   -0.065741
    12  F   -0.032545
    13  H    0.147892
    14  O   -0.371063
    15  H    0.338430
 Sum of Mulliken charges =  -0.00000
 Mulliken charges with hydrogens summed into heavy atoms:
               1
     1  C    0.255878
     2  F   -0.052847
     3  F   -0.052848
     4  F   -0.051152
     5  C    0.218542
     6  C   -0.196230
     7  C    0.234653
     8  O   -0.375449
     9  C    0.216117
    10  F   -0.065744
    11  F   -0.065741
    12  F   -0.032545
    14  O   -0.032633
 Electronic spatial extent (au):  <R**2>=           2785.0237
 Charge=             -0.0000 electrons
 Dipole moment (field-independent basis, Debye):
    X=             -0.3179    Y=             -0.5948    Z=             -0.0001  Tot=              0.6744
 Quadrupole moment (field-independent basis, Debye-Ang):
   XX=            -74.8190   YY=            -68.9105   ZZ=            -67.5954
   XY=             -0.7276   XZ=              0.0007   YZ=             -0.0000
 Traceless Quadrupole moment (field-independent basis, Debye-Ang):
   XX=             -4.3774   YY=              1.5312   ZZ=              2.8462
   XY=             -0.7276   XZ=              0.0007   YZ=             -0.0000
 Octapole moment (field-independent basis, Debye-Ang**2):
  XXX=             -0.4055  YYY=            -11.2214  ZZZ=             -0.0011  XYY=             -3.7238
  XXY=             -9.1915  XXZ=             -0.0007  XZZ=              1.0088  YZZ=             -1.4728
  YYZ=             -0.0001  XYZ=              0.0007
 Hexadecapole moment (field-independent basis, Debye-Ang**3):
 XXXX=          -2196.0035 YYYY=           -417.5554 ZZZZ=           -175.8368 XXXY=             -0.5654
 XXXZ=              0.1278 YYYX=            -11.0135 YYYZ=             -0.0112 ZZZX=              0.1267
 ZZZY=             -0.0145 XXYY=           -448.2750 XXZZ=           -394.6436 YYZZ=            -99.8874
 XXYZ=             -0.0041 YYXZ=              0.0426 ZZXY=              4.0232
 N-N= 8.899546274667D+02 E-N=-4.007913058462D+03  KE= 9.361448231329D+02
 Calling FoFJK, ICntrl=      2127 FMM=F ISym2X=0 I1Cent= 0 IOpClX= 0 NMat=1 NMatS=1 NMatT=0.
 ***** Axes restored to original set *****
 -------------------------------------------------------------------
 Center     Atomic                   Forces (Hartrees/Bohr)
 Number     Number              X              Y              Z
 -------------------------------------------------------------------
      1        6          -0.004847820   -0.002487884    0.000000472
      2        9           0.005894197   -0.003260951   -0.009410279
      3        9           0.005891830   -0.003259239    0.009411776
      4        9          -0.002426093    0.011726155   -0.000001529
      5        6           0.003547557    0.004822441   -0.000000365
      6        6          -0.002770533    0.005222194   -0.000000897
      7        6          -0.001192132    0.012485917   -0.000002263
      8        8           0.000052070   -0.017468133    0.000001862
      9        6           0.005143528   -0.002104100    0.000002413
     10        9           0.000162426    0.006462432    0.008859476
     11        9           0.000166564    0.006463503   -0.008860375
     12        9          -0.009648588   -0.008657661   -0.000001495
     13        1           0.000305676    0.000439199   -0.000000017
     14        8           0.003489745   -0.011048611    0.000001780
     15        1          -0.003768425    0.000664740   -0.000000560
 -------------------------------------------------------------------
 Cartesian Forces:  Max     0.017468133 RMS     0.005893264

 GradGradGradGradGradGradGradGradGradGradGradGradGradGradGradGradGradGrad
 Berny optimization.
 FormGI is forming the generalized inverse of G from B-inverse, IUseBI=4.
 Internal  Forces:  Max     0.017450292 RMS     0.005030227
 Search for a local minimum.
 Step number   1 out of a maximum of   68
 All quantities printed in internal units (Hartrees-Bohrs-Radians)
 Mixed Optimization -- RFO/linear search
 Second derivative matrix not updated -- first step.
 ITU=  0
     Eigenvalues ---    0.00230   0.00537   0.00827   0.01620   0.01791
     Eigenvalues ---    0.02182   0.02747   0.02941   0.10656   0.10926
     Eigenvalues ---    0.11202   0.11205   0.16000   0.16000   0.22000
     Eigenvalues ---    0.25000   0.25000   0.25000   0.25000   0.25000
     Eigenvalues ---    0.25000   0.25000   0.25000   0.25000   0.25000
     Eigenvalues ---    0.28332   0.30627   0.36217   0.40217   0.49987
     Eigenvalues ---    0.54971   0.59454   0.59454   0.61044   0.61044
     Eigenvalues ---    0.61358   0.64444   0.65664   0.96810
 RFO step:  Lambda=-2.54819080D-03 EMin= 2.30000000D-03
 Linear search not attempted -- first point.
 Iteration  1 RMS(Cart)=  0.02600634 RMS(Int)=  0.00029780
 Iteration  2 RMS(Cart)=  0.00042784 RMS(Int)=  0.00000250
 Iteration  3 RMS(Cart)=  0.00000018 RMS(Int)=  0.00000249
 Variable       Old X    -DE/DX   Delta X   Delta X   Delta X     New X
                                 (Linear)    (Quad)   (Total)
    R1        2.50123   0.01157   0.00000   0.01887   0.01887   2.52010
    R2        2.50123   0.01157   0.00000   0.01887   0.01887   2.52010
    R3        2.49882   0.01194   0.00000   0.01937   0.01937   2.51819
    R4        2.86731   0.00526   0.00000   0.01704   0.01704   2.88435
    R5        2.55158   0.00819   0.00000   0.01482   0.01482   2.56640
    R6        2.46721   0.01027   0.00000   0.01558   0.01558   2.48279
    R7        2.71259   0.00600   0.00000   0.01482   0.01482   2.72742
    R8        2.03744   0.00043   0.00000   0.00118   0.00118   2.03862
    R9        2.29944   0.01745   0.00000   0.01798   0.01798   2.31742
   R10        2.91418   0.00469   0.00000   0.01640   0.01640   2.93058
   R11        2.51375   0.01096   0.00000   0.01835   0.01835   2.53210
   R12        2.51375   0.01096   0.00000   0.01835   0.01835   2.53210
   R13        2.47588   0.01290   0.00000   0.01994   0.01994   2.49582
   R14        1.86579   0.00314   0.00000   0.00625   0.00625   1.87204
    A1        1.88948   0.00036   0.00000   0.00168   0.00167   1.89116
    A2        1.89219   0.00089   0.00000   0.00341   0.00340   1.89559
    A3        1.92161  -0.00028   0.00000  -0.00105  -0.00106   1.92055
    A4        1.89219   0.00089   0.00000   0.00341   0.00340   1.89559
    A5        1.92161  -0.00028   0.00000  -0.00105  -0.00105   1.92055
    A6        1.94550  -0.00149   0.00000  -0.00605  -0.00606   1.93944
    A7        2.13964   0.00133   0.00000   0.00527   0.00527   2.14491
    A8        1.94651   0.00327   0.00000   0.01295   0.01295   1.95946
    A9        2.19703  -0.00460   0.00000  -0.01822  -0.01822   2.17881
   A10        2.07102  -0.00201   0.00000  -0.00901  -0.00901   2.06200
   A11        2.10368   0.00068   0.00000   0.00251   0.00251   2.10619
   A12        2.10849   0.00133   0.00000   0.00650   0.00650   2.11499
   A13        2.17960  -0.00215   0.00000  -0.00850  -0.00850   2.17109
   A14        2.01980   0.00247   0.00000   0.00976   0.00976   2.02957
   A15        2.08379  -0.00032   0.00000  -0.00126  -0.00126   2.08252
   A16        1.91361  -0.00030   0.00000  -0.00112  -0.00113   1.91248
   A17        1.91363  -0.00030   0.00000  -0.00113  -0.00114   1.91250
   A18        1.95424  -0.00198   0.00000  -0.00796  -0.00797   1.94626
   A19        1.88086   0.00036   0.00000   0.00169   0.00169   1.88255
   A20        1.89998   0.00116   0.00000   0.00448   0.00447   1.90445
   A21        1.89998   0.00116   0.00000   0.00448   0.00447   1.90445
   A22        1.88185  -0.00408   0.00000  -0.02507  -0.02507   1.85678
    D1       -2.10058   0.00004   0.00000   0.00037   0.00037  -2.10021
    D2        1.04101   0.00004   0.00000   0.00037   0.00037   1.04138
    D3        2.10064  -0.00004   0.00000  -0.00039  -0.00038   2.10026
    D4       -1.04096  -0.00004   0.00000  -0.00038  -0.00038  -1.04134
    D5        0.00003  -0.00000   0.00000  -0.00001  -0.00001   0.00002
    D6       -3.14157  -0.00000   0.00000  -0.00000  -0.00000  -3.14157
    D7        3.14159   0.00000   0.00000   0.00000   0.00000   3.14159
    D8       -0.00000  -0.00000   0.00000  -0.00000  -0.00000  -0.00000
    D9        0.00000  -0.00000   0.00000  -0.00000  -0.00000  -0.00000
   D10       -3.14159  -0.00000   0.00000  -0.00001  -0.00001   3.14159
   D11       -3.14159  -0.00000   0.00000  -0.00000  -0.00000  -3.14159
   D12       -0.00000   0.00000   0.00000   0.00000   0.00000  -0.00000
   D13       -0.00000  -0.00000   0.00000  -0.00001  -0.00001  -0.00001
   D14        3.14158  -0.00000   0.00000  -0.00001  -0.00001   3.14157
   D15        3.14159  -0.00000   0.00000  -0.00000  -0.00000   3.14159
   D16       -0.00002  -0.00000   0.00000  -0.00001  -0.00001  -0.00003
   D17       -1.03096  -0.00004   0.00000  -0.00035  -0.00035  -1.03131
   D18        1.03070   0.00004   0.00000   0.00036   0.00035   1.03105
   D19        3.14147   0.00000   0.00000   0.00000   0.00000   3.14147
   D20        2.11062  -0.00004   0.00000  -0.00036  -0.00036   2.11027
   D21       -2.11091   0.00004   0.00000   0.00035   0.00035  -2.11056
   D22       -0.00013  -0.00000   0.00000  -0.00000  -0.00000  -0.00014
         Item               Value     Threshold  Converged?
 Maximum Force            0.017450     0.000450     NO 
 RMS     Force            0.005030     0.000300     NO 
 Maximum Displacement     0.080287     0.001800     NO 
 RMS     Displacement     0.026252     0.001200     NO 
 Predicted change in Energy=-1.280966D-03
 GradGradGradGradGradGradGradGradGradGradGradGradGradGradGradGradGradGrad

                          Input orientation:                          
 ---------------------------------------------------------------------
 Center     Atomic      Atomic             Coordinates (Angstroms)
 Number     Number       Type             X           Y           Z
 ---------------------------------------------------------------------
      1          6           0        2.525162    0.279992    0.000230
      2          9           0        3.225395   -0.065148   -1.080967
      3          9           0        3.225133   -0.064941    1.081663
      4          9           0        2.367262    1.603174    0.000083
      5          6           0        1.176578   -0.434855    0.000134
      6          6           0       -0.009165    0.227260   -0.000099
      7          6           0       -1.224020   -0.551974   -0.000174
      8          8           0       -1.260775   -1.777749   -0.000049
      9          6           0       -2.552793    0.247612   -0.000404
     10          9           0       -2.603241    1.034879    1.082683
     11          9           0       -2.602861    1.034928   -1.083471
     12          9           0       -3.601300   -0.555482   -0.000605
     13          1           0       -0.037350    1.305681   -0.000223
     14          8           0        1.306108   -1.742292    0.000297
     15          1           0        0.387883   -2.114088    0.000217
 ---------------------------------------------------------------------
                    Distance matrix (angstroms):
                    1          2          3          4          5
     1  C    0.000000
     2  F    1.333580   0.000000
     3  F    1.333580   2.162630   0.000000
     4  F    1.332569   2.165262   2.165263   0.000000
     5  C    1.526331   2.345872   2.345873   2.360358   0.000000
     6  C    2.534876   3.422888   3.422905   2.746005   1.358080
     7  C    3.840382   4.604607   4.604621   4.188313   2.403453
     8  O    4.309016   4.922104   4.922111   4.959162   2.782813
     9  C    5.078058   5.886671   5.886679   5.103380   3.791301
    10  F    5.295478   6.313830   5.931236   5.118680   4.197507
    11  F    5.295371   5.931167   6.313718   5.118507   4.197454
    12  F    6.183167   6.929024   6.929078   6.346930   4.779400
    13  H    2.760165   3.700363   3.700389   2.422945   2.122048
    14  O    2.361298   2.768684   2.768667   3.509728   1.313838
    15  H    3.209297   3.663140   3.663130   4.211410   1.855226
                    6          7          8          9         10
     6  C    0.000000
     7  C    1.443287   0.000000
     8  O    2.363596   1.226325   0.000000
     9  C    2.543709   1.550798   2.402373   0.000000
    10  F    2.924705   2.364939   3.299303   1.339930   0.000000
    11  F    2.924599   2.364951   3.299416   1.339928   2.166154
    12  F    3.676427   2.377283   2.640453   1.320730   2.167690
    13  H    1.078789   2.204329   3.317274   2.728912   2.798181
    14  O    2.368349   2.796141   2.567127   4.341754   4.916020
    15  H    2.374776   2.244645   1.682616   3.771631   4.475997
                   11         12         13         14         15
    11  F    0.000000
    12  F    2.167690   0.000000
    13  H    2.797960   4.020654   0.000000
    14  O    4.916049   5.048878   3.330919   0.000000
    15  H    4.476073   4.282853   3.446106   0.990641   0.000000
 Stoichiometry    C5H2F6O2
 Framework group  C1[X(C5H2F6O2)]
 Deg. of freedom    39
 Full point group                 C1      NOp   1
 Largest Abelian subgroup         C1      NOp   1
 Largest concise Abelian subgroup C1      NOp   1
                         Standard orientation:                         
 ---------------------------------------------------------------------
 Center     Atomic      Atomic             Coordinates (Angstroms)
 Number     Number       Type             X           Y           Z
 ---------------------------------------------------------------------
      1          6           0       -2.522325   -0.313117    0.000283
      2          9           0       -3.222430    0.032282   -1.080914
      3          9           0       -3.222168    0.032075    1.081716
      4          9           0       -2.364914   -1.636357    0.000136
      5          6           0       -1.173476    0.401231    0.000187
      6          6           0        0.012022   -0.261322   -0.000046
      7          6           0        1.227165    0.517463   -0.000121
      8          8           0        1.264373    1.743224    0.000004
      9          6           0        2.555642   -0.282614   -0.000351
     10          9           0        2.605800   -1.069899    1.082736
     11          9           0        2.605419   -1.069948   -1.083417
     12          9           0        3.604446    0.520093   -0.000552
     13          1           0        0.039809   -1.339753   -0.000170
     14          8           0       -1.302523    1.708716    0.000351
     15          1           0       -0.384160    2.080173    0.000270
 ---------------------------------------------------------------------
 Rotational constants (GHZ):           1.6956384           0.3780642           0.3469100
 Standard basis: GTBas3 (6D, 7F)
 There are   413 symmetry adapted cartesian basis functions of A   symmetry.
 There are   374 symmetry adapted basis functions of A   symmetry.
   374 basis functions,   586 primitive gaussians,   413 cartesian basis functions
    51 alpha electrons       51 beta electrons
       nuclear repulsion energy       884.7119569175 Hartrees.
 NAtoms=   15 NActive=   15 NUniq=   15 SFac= 1.00D+00 NAtFMM=   60 NAOKFM=F Big=F
 Integral buffers will be    131072 words long.
 Raffenetti 2 integral format.
 Two-electron integral symmetry is turned on.
 One-electron integrals computed using PRISM.
 NBasis=   374 RedAO= T EigKep=  3.12D-04  NBF=   374
 NBsUse=   374 1.00D-06 EigRej= -1.00D+00 NBFU=   374
 Initial guess from the checkpoint file:  "/home/artemiy/opt/gaussian/scr/Gau-1799.chk"
 B after Tr=    -0.000000   -0.000000   -0.000000
         Rot=    1.000000    0.000000    0.000000    0.000346 Ang=   0.04 deg.
 ExpMin= 1.61D-01 ExpMax= 7.00D+03 ExpMxC= 1.05D+03 IAcc=2 IRadAn=         4 AccDes= 0.00D+00
 Harris functional with IExCor=  402 and IRadAn=       4 diagonalized for initial guess.
 HarFok:  IExCor=  402 AccDes= 0.00D+00 IRadAn=         4 IDoV= 1 UseB2=F ITyADJ=14
 ICtDFT=  3500011 ScaDFX=  1.000000  1.000000  1.000000  1.000000
 FoFCou: FMM=F IPFlag=           0 FMFlag=      100000 FMFlg1=           0
         NFxFlg=           0 DoJE=T BraDBF=F KetDBF=T FulRan=T
         wScrn=  0.000000 ICntrl=       500 IOpCl=  0 I1Cent=   200000004 NGrid=           0
         NMat0=    1 NMatS0=      1 NMatT0=    0 NMatD0=    1 NMtDS0=    0 NMtDT0=    0
 Petite list used in FoFCou.
 Requested convergence on RMS density matrix=1.00D-08 within 128 cycles.
 Requested convergence on MAX density matrix=1.00D-06.
 Requested convergence on             energy=1.00D-06.
 No special actions if energy rises.
 Integral accuracy reduced to 1.0D-05 until final iterations.
 Initial convergence to 1.0D-05 achieved.  Increase integral accuracy.
 SCF Done:  E(RB3LYP) =  -941.274046653     A.U. after   11 cycles
            NFock= 11  Conv=0.47D-08     -V/T= 2.0058
 Calling FoFJK, ICntrl=      2127 FMM=F ISym2X=0 I1Cent= 0 IOpClX= 0 NMat=1 NMatS=1 NMatT=0.
 ***** Axes restored to original set *****
 -------------------------------------------------------------------
 Center     Atomic                   Forces (Hartrees/Bohr)
 Number     Number              X              Y              Z
 -------------------------------------------------------------------
      1        6          -0.003038172   -0.002252548    0.000000086
      2        9           0.000639138    0.000264075   -0.000111357
      3        9           0.000638874    0.000264288    0.000111215
      4        9           0.000163551    0.000951609   -0.000000042
      5        6           0.002235316    0.000025136    0.000000464
      6        6          -0.002337896    0.000247306   -0.000000593
      7        6           0.000861194    0.006050663   -0.000000162
      8        8          -0.001059085   -0.003464164    0.000000191
      9        6           0.003146034   -0.001571593    0.000001485
     10        9          -0.000524933    0.000288661   -0.000106159
     11        9          -0.000524820    0.000289040    0.000105286
     12        9          -0.001148101   -0.000156355   -0.000000321
     13        1          -0.000124134   -0.000050420   -0.000000118
     14        8           0.005089472    0.001122473    0.000000509
     15        1          -0.004016436   -0.002008170   -0.000000483
 -------------------------------------------------------------------
 Cartesian Forces:  Max     0.006050663 RMS     0.001757597

 GradGradGradGradGradGradGradGradGradGradGradGradGradGradGradGradGradGrad
 Berny optimization.
 Using GEDIIS/GDIIS optimizer.
 FormGI is forming the generalized inverse of G from B-inverse, IUseBI=4.
 Internal  Forces:  Max     0.004476368 RMS     0.001105526
 Search for a local minimum.
 Step number   2 out of a maximum of   68
 All quantities printed in internal units (Hartrees-Bohrs-Radians)
 Mixed Optimization -- RFO/linear search
 Update second derivatives using D2CorX and points    1    2
 DE= -1.26D-03 DEPred=-1.28D-03 R= 9.86D-01
 TightC=F SS=  1.41D+00  RLast= 7.34D-02 DXNew= 5.0454D-01 2.2033D-01
 Trust test= 9.86D-01 RLast= 7.34D-02 DXMaxT set to 3.00D-01
 ITU=  1  0
 Use linear search instead of GDIIS.
     Eigenvalues ---    0.00230   0.00537   0.00823   0.01620   0.01772
     Eigenvalues ---    0.02181   0.02747   0.02941   0.10753   0.11000
     Eigenvalues ---    0.11229   0.11233   0.15998   0.16122   0.22192
     Eigenvalues ---    0.24543   0.25000   0.25000   0.25000   0.25000
     Eigenvalues ---    0.25000   0.25000   0.25000   0.25000   0.26438
     Eigenvalues ---    0.28942   0.31889   0.36219   0.41020   0.45912
     Eigenvalues ---    0.54017   0.59454   0.60014   0.61044   0.61134
     Eigenvalues ---    0.62090   0.64004   0.65404   0.93426
 RFO step:  Lambda=-1.84611238D-04 EMin= 2.30000000D-03
 Quartic linear search produced a step of -0.00342.
 Iteration  1 RMS(Cart)=  0.01165599 RMS(Int)=  0.00003869
 Iteration  2 RMS(Cart)=  0.00007087 RMS(Int)=  0.00000183
 Iteration  3 RMS(Cart)=  0.00000000 RMS(Int)=  0.00000183
 Variable       Old X    -DE/DX   Delta X   Delta X   Delta X     New X
                                 (Linear)    (Quad)   (Total)
    R1        2.52010   0.00036  -0.00006   0.00202   0.00196   2.52206
    R2        2.52010   0.00036  -0.00006   0.00202   0.00196   2.52206
    R3        2.51819   0.00093  -0.00007   0.00298   0.00292   2.52111
    R4        2.88435  -0.00177  -0.00006  -0.00446  -0.00452   2.87983
    R5        2.56640   0.00229  -0.00005   0.00528   0.00523   2.57163
    R6        2.48279   0.00099  -0.00005   0.00269   0.00263   2.48543
    R7        2.72742  -0.00141  -0.00005  -0.00235  -0.00240   2.72501
    R8        2.03862  -0.00005  -0.00000  -0.00004  -0.00004   2.03857
    R9        2.31742   0.00349  -0.00006   0.00497   0.00491   2.32233
   R10        2.93058  -0.00141  -0.00006  -0.00369  -0.00375   2.92684
   R11        2.53210   0.00010  -0.00006   0.00157   0.00151   2.53361
   R12        2.53210   0.00010  -0.00006   0.00157   0.00151   2.53361
   R13        2.49582   0.00101  -0.00007   0.00308   0.00301   2.49883
   R14        1.87204   0.00448  -0.00002   0.00940   0.00938   1.88142
    A1        1.89116  -0.00074  -0.00001  -0.00235  -0.00236   1.88880
    A2        1.89559  -0.00056  -0.00001  -0.00221  -0.00222   1.89337
    A3        1.92055   0.00085   0.00000   0.00341   0.00341   1.92397
    A4        1.89559  -0.00056  -0.00001  -0.00221  -0.00222   1.89337
    A5        1.92055   0.00085   0.00000   0.00341   0.00341   1.92397
    A6        1.93944   0.00011   0.00002  -0.00026  -0.00024   1.93920
    A7        2.14491  -0.00172  -0.00002  -0.00645  -0.00647   2.13844
    A8        1.95946  -0.00069  -0.00004  -0.00176  -0.00180   1.95766
    A9        2.17881   0.00241   0.00006   0.00821   0.00827   2.18708
   A10        2.06200   0.00183   0.00003   0.00758   0.00762   2.06962
   A11        2.10619  -0.00079  -0.00001  -0.00315  -0.00316   2.10304
   A12        2.11499  -0.00104  -0.00002  -0.00444  -0.00446   2.11053
   A13        2.17109   0.00096   0.00003   0.00319   0.00322   2.17431
   A14        2.02957   0.00028  -0.00003   0.00188   0.00185   2.03141
   A15        2.08252  -0.00125   0.00000  -0.00507  -0.00507   2.07746
   A16        1.91248   0.00075   0.00000   0.00287   0.00287   1.91535
   A17        1.91250   0.00075   0.00000   0.00287   0.00287   1.91537
   A18        1.94626   0.00067   0.00003   0.00213   0.00215   1.94842
   A19        1.88255  -0.00076  -0.00001  -0.00304  -0.00305   1.87950
   A20        1.90445  -0.00073  -0.00002  -0.00252  -0.00254   1.90191
   A21        1.90445  -0.00073  -0.00002  -0.00253  -0.00254   1.90191
   A22        1.85678   0.00066   0.00009   0.00221   0.00230   1.85908
    D1       -2.10021   0.00007  -0.00000   0.00068   0.00068  -2.09953
    D2        1.04138   0.00007  -0.00000   0.00067   0.00068   1.04205
    D3        2.10026  -0.00007   0.00000  -0.00069  -0.00069   2.09957
    D4       -1.04134  -0.00007   0.00000  -0.00069  -0.00069  -1.04203
    D5        0.00002   0.00000   0.00000  -0.00001  -0.00001   0.00002
    D6       -3.14157  -0.00000   0.00000  -0.00001  -0.00001  -3.14158
    D7        3.14159   0.00000  -0.00000   0.00001   0.00001  -3.14159
    D8       -0.00000   0.00000   0.00000   0.00000   0.00000   0.00000
    D9       -0.00000   0.00000   0.00000   0.00001   0.00001   0.00001
   D10        3.14159   0.00000   0.00000   0.00001   0.00001  -3.14159
   D11       -3.14159   0.00000   0.00000   0.00001   0.00001  -3.14158
   D12       -0.00000   0.00000  -0.00000   0.00000   0.00000   0.00000
   D13       -0.00001  -0.00000   0.00000  -0.00001  -0.00001  -0.00001
   D14        3.14157   0.00000   0.00000   0.00001   0.00001   3.14157
   D15        3.14159   0.00000   0.00000  -0.00000  -0.00000   3.14158
   D16       -0.00003   0.00000   0.00000   0.00001   0.00001  -0.00002
   D17       -1.03131   0.00002   0.00000   0.00012   0.00012  -1.03119
   D18        1.03105  -0.00002  -0.00000  -0.00017  -0.00017   1.03089
   D19        3.14147  -0.00000  -0.00000  -0.00002  -0.00002   3.14145
   D20        2.11027   0.00002   0.00000   0.00013   0.00013   2.11040
   D21       -2.11056  -0.00002  -0.00000  -0.00015  -0.00015  -2.11071
   D22       -0.00014  -0.00000   0.00000  -0.00001  -0.00001  -0.00015
         Item               Value     Threshold  Converged?
 Maximum Force            0.004476     0.000450     NO 
 RMS     Force            0.001106     0.000300     NO 
 Maximum Displacement     0.039230     0.001800     NO 
 RMS     Displacement     0.011699     0.001200     NO 
 Predicted change in Energy=-9.236995D-05
 GradGradGradGradGradGradGradGradGradGradGradGradGradGradGradGradGradGrad

                          Input orientation:                          
 ---------------------------------------------------------------------
 Center     Atomic      Atomic             Coordinates (Angstroms)
 Number     Number       Type             X           Y           Z
 ---------------------------------------------------------------------
      1          6           0        2.520684    0.281317    0.000227
      2          9           0        3.227143   -0.055299   -1.080886
      3          9           0        3.226878   -0.055081    1.081581
      4          9           0        2.352065    1.604730    0.000072
      5          6           0        1.179762   -0.442779    0.000134
      6          6           0       -0.009227    0.219199   -0.000098
      7          6           0       -1.227941   -0.551608   -0.000164
      8          8           0       -1.276546   -1.779569   -0.000039
      9          6           0       -2.551393    0.252945   -0.000402
     10          9           0       -2.601687    1.042341    1.082132
     11          9           0       -2.601278    1.042405   -1.082907
     12          9           0       -3.606506   -0.544095   -0.000624
     13          1           0       -0.035356    1.297648   -0.000226
     14          8           0        1.321882   -1.750310    0.000298
     15          1           0        0.403538   -2.134848    0.000214
 ---------------------------------------------------------------------
                    Distance matrix (angstroms):
                    1          2          3          4          5
     1  C    0.000000
     2  F    1.334616   0.000000
     3  F    1.334616   2.162467   0.000000
     4  F    1.334112   2.165625   2.165625   0.000000
     5  C    1.523938   2.347449   2.347450   2.359362   0.000000
     6  C    2.530673   3.423090   3.423103   2.737772   1.360848
     7  C    3.840046   4.611080   4.611087   4.179263   2.410161
     8  O    4.320440   4.942120   4.942123   4.961884   2.796507
     9  C    5.072156   5.886760   5.886763   5.086376   3.795464
    10  F    5.290402   6.313376   5.930978   5.101646   4.204242
    11  F    5.290267   5.930890   6.313230   5.101437   4.204166
    12  F    6.182536   6.935751   6.935808   6.334194   4.787339
    13  H    2.750685   3.693534   3.693555   2.407089   2.122640
    14  O    2.358948   2.769845   2.769834   3.509640   1.315232
    15  H    3.212501   3.669611   3.669609   4.216776   1.861618
                    6          7          8          9         10
     6  C    0.000000
     7  C    1.442015   0.000000
     8  O    2.366679   1.228922   0.000000
     9  C    2.542390   1.548815   2.399239   0.000000
    10  F    2.927393   2.366266   3.300040   1.340729   0.000000
    11  F    2.927263   2.366276   3.300159   1.340728   2.165039
    12  F    3.677367   2.378576   2.637254   1.322322   2.167672
    13  H    1.078766   2.200456   3.318104   2.724306   2.796915
    14  O    2.377144   2.817532   2.598592   4.360652   4.935955
    15  H    2.389960   2.273406   1.717238   3.799101   4.505158
                   11         12         13         14         15
    11  F    0.000000
    12  F    2.167672   0.000000
    13  H    2.796658   4.018100   0.000000
    14  O    4.935967   5.073850   3.336486   0.000000
    15  H    4.505219   4.314040   3.460442   0.995603   0.000000
 Stoichiometry    C5H2F6O2
 Framework group  C1[X(C5H2F6O2)]
 Deg. of freedom    39
 Full point group                 C1      NOp   1
 Largest Abelian subgroup         C1      NOp   1
 Largest concise Abelian subgroup C1      NOp   1
                         Standard orientation:                         
 ---------------------------------------------------------------------
 Center     Atomic      Atomic             Coordinates (Angstroms)
 Number     Number       Type             X           Y           Z
 ---------------------------------------------------------------------
      1          6           0       -2.518794   -0.314414    0.000280
      2          9           0       -3.225475    0.021737   -1.080832
      3          9           0       -3.225209    0.021519    1.081634
      4          9           0       -2.349304   -1.637716    0.000125
      5          6           0       -1.178349    0.410565    0.000188
      6          6           0        0.011076   -0.250630   -0.000045
      7          6           0        1.229282    0.520978   -0.000111
      8          8           0        1.277078    1.748971    0.000014
      9          6           0        2.553263   -0.282703   -0.000349
     10          9           0        2.604076   -1.072066    1.082185
     11          9           0        2.603667   -1.072130   -1.082853
     12          9           0        3.607851    0.515031   -0.000571
     13          1           0        0.037915   -1.329062   -0.000173
     14          8           0       -1.321329    1.718001    0.000352
     15          1           0       -0.403239    2.103144    0.000267
 ---------------------------------------------------------------------
 Rotational constants (GHZ):           1.6896145           0.3779006           0.3464947
 Standard basis: GTBas3 (6D, 7F)
 There are   413 symmetry adapted cartesian basis functions of A   symmetry.
 There are   374 symmetry adapted basis functions of A   symmetry.
   374 basis functions,   586 primitive gaussians,   413 cartesian basis functions
    51 alpha electrons       51 beta electrons
       nuclear repulsion energy       883.9657863473 Hartrees.
 NAtoms=   15 NActive=   15 NUniq=   15 SFac= 1.00D+00 NAtFMM=   60 NAOKFM=F Big=F
 Integral buffers will be    131072 words long.
 Raffenetti 2 integral format.
 Two-electron integral symmetry is turned on.
 One-electron integrals computed using PRISM.
 NBasis=   374 RedAO= T EigKep=  3.14D-04  NBF=   374
 NBsUse=   374 1.00D-06 EigRej= -1.00D+00 NBFU=   374
 Initial guess from the checkpoint file:  "/home/artemiy/opt/gaussian/scr/Gau-1799.chk"
 B after Tr=     0.000000    0.000000   -0.000000
         Rot=    1.000000   -0.000000   -0.000000   -0.000436 Ang=  -0.05 deg.
 ExpMin= 1.61D-01 ExpMax= 7.00D+03 ExpMxC= 1.05D+03 IAcc=2 IRadAn=         4 AccDes= 0.00D+00
 Harris functional with IExCor=  402 and IRadAn=       4 diagonalized for initial guess.
 HarFok:  IExCor=  402 AccDes= 0.00D+00 IRadAn=         4 IDoV= 1 UseB2=F ITyADJ=14
 ICtDFT=  3500011 ScaDFX=  1.000000  1.000000  1.000000  1.000000
 FoFCou: FMM=F IPFlag=           0 FMFlag=      100000 FMFlg1=           0
         NFxFlg=           0 DoJE=T BraDBF=F KetDBF=T FulRan=T
         wScrn=  0.000000 ICntrl=       500 IOpCl=  0 I1Cent=   200000004 NGrid=           0
         NMat0=    1 NMatS0=      1 NMatT0=    0 NMatD0=    1 NMtDS0=    0 NMtDT0=    0
 Petite list used in FoFCou.
 Requested convergence on RMS density matrix=1.00D-08 within 128 cycles.
 Requested convergence on MAX density matrix=1.00D-06.
 Requested convergence on             energy=1.00D-06.
 No special actions if energy rises.
 Integral accuracy reduced to 1.0D-05 until final iterations.
 Initial convergence to 1.0D-05 achieved.  Increase integral accuracy.
 SCF Done:  E(RB3LYP) =  -941.274085405     A.U. after   10 cycles
            NFock= 10  Conv=0.89D-08     -V/T= 2.0058
 Calling FoFJK, ICntrl=      2127 FMM=F ISym2X=0 I1Cent= 0 IOpClX= 0 NMat=1 NMatS=1 NMatT=0.
 ***** Axes restored to original set *****
 -------------------------------------------------------------------
 Center     Atomic                   Forces (Hartrees/Bohr)
 Number     Number              X              Y              Z
 -------------------------------------------------------------------
      1        6          -0.000224207   -0.000340297    0.000000014
      2        9          -0.000264908    0.000108088    0.000387480
      3        9          -0.000264889    0.000108015   -0.000387564
      4        9           0.000119360   -0.000079673   -0.000000002
      5        6          -0.000617659    0.000578025   -0.000000267
      6        6           0.000242689   -0.001218065    0.000000640
      7        6           0.000351769    0.000319300   -0.000001299
      8        8           0.001202604    0.000377244    0.000000397
      9        6           0.000307972   -0.000026330    0.000001059
     10        9           0.000038647   -0.000280013   -0.000224214
     11        9           0.000038678   -0.000279805    0.000223801
     12        9           0.000308378    0.000164562    0.000000002
     13        1           0.000117705    0.000000354    0.000000003
     14        8          -0.001600359   -0.000079038   -0.000000339
     15        1           0.000244220    0.000647634    0.000000289
 -------------------------------------------------------------------
 Cartesian Forces:  Max     0.001600359 RMS     0.000428466

 GradGradGradGradGradGradGradGradGradGradGradGradGradGradGradGradGradGrad
 Berny optimization.
 Using GEDIIS/GDIIS optimizer.
 FormGI is forming the generalized inverse of G from B-inverse, IUseBI=4.
 Internal  Forces:  Max     0.003576291 RMS     0.000940496
 Search for a local minimum.
 Step number   3 out of a maximum of   68
 All quantities printed in internal units (Hartrees-Bohrs-Radians)
 Mixed Optimization -- En-DIIS/RFO-DIIS
 Update second derivatives using D2CorX and points    1    2    3
 DE= -3.88D-05 DEPred=-9.24D-05 R= 4.20D-01
 Trust test= 4.20D-01 RLast= 2.34D-02 DXMaxT set to 3.00D-01
 ITU=  0  1  0
 Use linear search instead of GDIIS.
     Eigenvalues ---    0.00230   0.00537   0.00827   0.01620   0.01780
     Eigenvalues ---    0.02181   0.02747   0.02941   0.10706   0.10981
     Eigenvalues ---    0.11156   0.11187   0.15787   0.16011   0.19925
     Eigenvalues ---    0.23568   0.25000   0.25000   0.25000   0.25000
     Eigenvalues ---    0.25000   0.25000   0.25000   0.25124   0.28206
     Eigenvalues ---    0.30089   0.36091   0.36223   0.39360   0.50273
     Eigenvalues ---    0.59454   0.59969   0.60832   0.61044   0.62108
     Eigenvalues ---    0.63769   0.65027   0.73285   0.92504
 RFO step:  Lambda=-5.31265180D-05 EMin= 2.29999992D-03
 Quartic linear search produced a step of -0.36796.
 Iteration  1 RMS(Cart)=  0.01063723 RMS(Int)=  0.00003020
 Iteration  2 RMS(Cart)=  0.00004642 RMS(Int)=  0.00000060
 Iteration  3 RMS(Cart)=  0.00000000 RMS(Int)=  0.00000060
 Variable       Old X    -DE/DX   Delta X   Delta X   Delta X     New X
                                 (Linear)    (Quad)   (Total)
    R1        2.52206  -0.00048  -0.00072   0.00083   0.00011   2.52217
    R2        2.52206  -0.00048  -0.00072   0.00083   0.00011   2.52217
    R3        2.52111  -0.00009  -0.00107   0.00187   0.00080   2.52190
    R4        2.87983  -0.00065   0.00166  -0.00426  -0.00259   2.87723
    R5        2.57163  -0.00274  -0.00192   0.00031  -0.00161   2.57002
    R6        2.48543  -0.00071  -0.00097   0.00108   0.00012   2.48554
    R7        2.72501  -0.00205   0.00088  -0.00476  -0.00388   2.72114
    R8        2.03857  -0.00000   0.00002  -0.00003  -0.00001   2.03856
    R9        2.32233  -0.00042  -0.00181   0.00301   0.00120   2.32353
   R10        2.92684  -0.00081   0.00138  -0.00421  -0.00283   2.92400
   R11        2.53361  -0.00035  -0.00056   0.00067   0.00011   2.53372
   R12        2.53361  -0.00035  -0.00056   0.00067   0.00011   2.53372
   R13        2.49883  -0.00034  -0.00111   0.00169   0.00058   2.49941
   R14        1.88142  -0.00048  -0.00345   0.00557   0.00211   1.88353
    A1        1.88880   0.00001   0.00087  -0.00164  -0.00077   1.88803
    A2        1.89337  -0.00005   0.00082  -0.00150  -0.00068   1.89269
    A3        1.92397  -0.00006  -0.00126   0.00201   0.00076   1.92472
    A4        1.89337  -0.00005   0.00082  -0.00150  -0.00068   1.89269
    A5        1.92397  -0.00006  -0.00126   0.00201   0.00076   1.92472
    A6        1.93920   0.00022   0.00009   0.00045   0.00054   1.93974
    A7        2.13844   0.00136   0.00238  -0.00073   0.00165   2.14009
    A8        1.95766   0.00139   0.00066   0.00240   0.00306   1.96072
    A9        2.18708  -0.00275  -0.00304  -0.00167  -0.00471   2.18237
   A10        2.06962  -0.00358  -0.00280  -0.00542  -0.00822   2.06140
   A11        2.10304   0.00167   0.00116   0.00265   0.00381   2.10684
   A12        2.11053   0.00191   0.00164   0.00278   0.00442   2.11495
   A13        2.17431  -0.00186  -0.00118  -0.00267  -0.00385   2.17046
   A14        2.03141   0.00097  -0.00068   0.00369   0.00301   2.03442
   A15        2.07746   0.00089   0.00186  -0.00102   0.00084   2.07830
   A16        1.91535  -0.00007  -0.00106   0.00173   0.00067   1.91603
   A17        1.91537  -0.00007  -0.00106   0.00172   0.00067   1.91604
   A18        1.94842  -0.00009  -0.00079   0.00105   0.00026   1.94867
   A19        1.87950   0.00014   0.00112  -0.00141  -0.00028   1.87922
   A20        1.90191   0.00005   0.00094  -0.00161  -0.00068   1.90123
   A21        1.90191   0.00005   0.00094  -0.00161  -0.00068   1.90123
   A22        1.85908  -0.00095  -0.00085  -0.00235  -0.00319   1.85588
    D1       -2.09953  -0.00003  -0.00025   0.00025   0.00000  -2.09953
    D2        1.04205  -0.00003  -0.00025   0.00025   0.00000   1.04206
    D3        2.09957   0.00003   0.00025  -0.00026  -0.00000   2.09956
    D4       -1.04203   0.00003   0.00025  -0.00026  -0.00000  -1.04203
    D5        0.00002  -0.00000   0.00000  -0.00000  -0.00000   0.00002
    D6       -3.14158   0.00000   0.00000  -0.00000   0.00000  -3.14158
    D7       -3.14159  -0.00000  -0.00000  -0.00000  -0.00000  -3.14159
    D8        0.00000  -0.00000  -0.00000  -0.00000  -0.00000  -0.00000
    D9        0.00001  -0.00000  -0.00000  -0.00000  -0.00001   0.00000
   D10       -3.14159  -0.00000  -0.00000  -0.00000  -0.00000  -3.14159
   D11       -3.14158  -0.00000  -0.00000  -0.00000  -0.00001  -3.14159
   D12        0.00000  -0.00000  -0.00000  -0.00000  -0.00000   0.00000
   D13       -0.00001   0.00000   0.00000   0.00001   0.00001  -0.00000
   D14        3.14157  -0.00000  -0.00000  -0.00002  -0.00002   3.14155
   D15        3.14158  -0.00000   0.00000   0.00001   0.00001   3.14159
   D16       -0.00002  -0.00000  -0.00000  -0.00002  -0.00002  -0.00004
   D17       -1.03119  -0.00005  -0.00004  -0.00015  -0.00020  -1.03138
   D18        1.03089   0.00005   0.00006   0.00020   0.00026   1.03115
   D19        3.14145   0.00000   0.00001   0.00002   0.00003   3.14148
   D20        2.11040  -0.00005  -0.00005  -0.00017  -0.00022   2.11018
   D21       -2.11071   0.00005   0.00006   0.00018   0.00024  -2.11048
   D22       -0.00015  -0.00000   0.00000   0.00000   0.00001  -0.00014
         Item               Value     Threshold  Converged?
 Maximum Force            0.003576     0.000450     NO 
 RMS     Force            0.000940     0.000300     NO 
 Maximum Displacement     0.035794     0.001800     NO 
 RMS     Displacement     0.010647     0.001200     NO 
 Predicted change in Energy=-4.565889D-05
 GradGradGradGradGradGradGradGradGradGradGradGradGradGradGradGradGradGrad

                          Input orientation:                          
 ---------------------------------------------------------------------
 Center     Atomic      Atomic             Coordinates (Angstroms)
 Number     Number       Type             X           Y           Z
 ---------------------------------------------------------------------
      1          6           0        2.521514    0.277800    0.000233
      2          9           0        3.226855   -0.062204   -1.080625
      3          9           0        3.226578   -0.061987    1.081339
      4          9           0        2.361019    1.602647    0.000079
      5          6           0        1.177742   -0.438082    0.000131
      6          6           0       -0.007852    0.228217   -0.000106
      7          6           0       -1.221561   -0.546640   -0.000183
      8          8           0       -1.260252   -1.775589   -0.000052
      9          6           0       -2.549518    0.247536   -0.000399
     10          9           0       -2.606443    1.036680    1.082063
     11          9           0       -2.606079    1.036726   -1.082847
     12          9           0       -3.599282   -0.557043   -0.000592
     13          1           0       -0.033786    1.306663   -0.000231
     14          8           0        1.308487   -1.746860    0.000295
     15          1           0        0.384596   -2.120868    0.000210
 ---------------------------------------------------------------------
                    Distance matrix (angstroms):
                    1          2          3          4          5
     1  C    0.000000
     2  F    1.334676   0.000000
     3  F    1.334676   2.161963   0.000000
     4  F    1.334533   2.165484   2.165484   0.000000
     5  C    1.522566   2.346951   2.346952   2.358965   0.000000
     6  C    2.529852   3.422747   3.422758   2.738724   1.359995
     7  C    3.832794   4.603308   4.603316   4.177836   2.401758
     8  O    4.303274   4.923156   4.923158   4.952382   2.780782
     9  C    5.071123   5.884668   5.884662   5.094085   3.789795
    10  F    5.295488   6.317605   5.935587   5.115338   4.203041
    11  F    5.295398   5.935551   6.317495   5.115179   4.202999
    12  F    6.177468   6.928744   6.928782   6.339515   4.778506
    13  H    2.754653   3.697678   3.697697   2.413026   2.124132
    14  O    2.360229   2.772471   2.772458   3.510986   1.315293
    15  H    3.212479   3.672157   3.672150   4.215544   1.860336
                    6          7          8          9         10
     6  C    0.000000
     7  C    1.439963   0.000000
     8  O    2.362995   1.229558   0.000000
     9  C    2.541740   1.547316   2.399009   0.000000
    10  F    2.928716   2.365598   3.300312   1.340789   0.000000
    11  F    2.928617   2.365607   3.300426   1.340788   2.164910
    12  F    3.676276   2.377744   2.637407   1.322631   2.167447
    13  H    1.078759   2.201260   3.317304   2.729590   2.804072
    14  O    2.373536   2.800298   2.568900   4.343020   4.923920
    15  H    2.381641   2.248985   1.680698   3.770725   4.481833
                   11         12         13         14         15
    11  F    0.000000
    12  F    2.167447   0.000000
    13  H    2.803857   4.023204   0.000000
    14  O    4.923959   5.049937   3.335521   0.000000
    15  H    4.481913   4.279817   3.452972   0.996722   0.000000
 Stoichiometry    C5H2F6O2
 Framework group  C1[X(C5H2F6O2)]
 Deg. of freedom    39
 Full point group                 C1      NOp   1
 Largest Abelian subgroup         C1      NOp   1
 Largest concise Abelian subgroup C1      NOp   1
                         Standard orientation:                         
 ---------------------------------------------------------------------
 Center     Atomic      Atomic             Coordinates (Angstroms)
 Number     Number       Type             X           Y           Z
 ---------------------------------------------------------------------
      1          6           0       -2.518707   -0.311709    0.000284
      2          9           0       -3.224090    0.028208   -1.080573
      3          9           0       -3.223812    0.027992    1.081390
      4          9           0       -2.358050   -1.636537    0.000131
      5          6           0       -1.175022    0.404336    0.000183
      6          6           0        0.010653   -0.261818   -0.000054
      7          6           0        1.224268    0.513187   -0.000131
      8          8           0        1.262810    1.742141   -0.000001
      9          6           0        2.552322   -0.280828   -0.000348
     10          9           0        2.609342   -1.069965    1.082115
     11          9           0        2.608978   -1.070011   -1.082795
     12          9           0        3.601988    0.523880   -0.000541
     13          1           0        0.036718   -1.340261   -0.000180
     14          8           0       -1.305926    1.713098    0.000347
     15          1           0       -0.382081    2.087219    0.000262
 ---------------------------------------------------------------------
 Rotational constants (GHZ):           1.6946653           0.3781519           0.3469057
 Standard basis: GTBas3 (6D, 7F)
 There are   413 symmetry adapted cartesian basis functions of A   symmetry.
 There are   374 symmetry adapted basis functions of A   symmetry.
   374 basis functions,   586 primitive gaussians,   413 cartesian basis functions
    51 alpha electrons       51 beta electrons
       nuclear repulsion energy       884.5481643917 Hartrees.
 NAtoms=   15 NActive=   15 NUniq=   15 SFac= 1.00D+00 NAtFMM=   60 NAOKFM=F Big=F
 Integral buffers will be    131072 words long.
 Raffenetti 2 integral format.
 Two-electron integral symmetry is turned on.
 One-electron integrals computed using PRISM.
 NBasis=   374 RedAO= T EigKep=  3.12D-04  NBF=   374
 NBsUse=   374 1.00D-06 EigRej= -1.00D+00 NBFU=   374
 Initial guess from the checkpoint file:  "/home/artemiy/opt/gaussian/scr/Gau-1799.chk"
 B after Tr=     0.000000    0.000000    0.000000
         Rot=    1.000000   -0.000000    0.000000    0.000075 Ang=  -0.01 deg.
 ExpMin= 1.61D-01 ExpMax= 7.00D+03 ExpMxC= 1.05D+03 IAcc=2 IRadAn=         4 AccDes= 0.00D+00
 Harris functional with IExCor=  402 and IRadAn=       4 diagonalized for initial guess.
 HarFok:  IExCor=  402 AccDes= 0.00D+00 IRadAn=         4 IDoV= 1 UseB2=F ITyADJ=14
 ICtDFT=  3500011 ScaDFX=  1.000000  1.000000  1.000000  1.000000
 FoFCou: FMM=F IPFlag=           0 FMFlag=      100000 FMFlg1=           0
         NFxFlg=           0 DoJE=T BraDBF=F KetDBF=T FulRan=T
         wScrn=  0.000000 ICntrl=       500 IOpCl=  0 I1Cent=   200000004 NGrid=           0
         NMat0=    1 NMatS0=      1 NMatT0=    0 NMatD0=    1 NMtDS0=    0 NMtDT0=    0
 Petite list used in FoFCou.
 Requested convergence on RMS density matrix=1.00D-08 within 128 cycles.
 Requested convergence on MAX density matrix=1.00D-06.
 Requested convergence on             energy=1.00D-06.
 No special actions if energy rises.
 Integral accuracy reduced to 1.0D-05 until final iterations.
 Initial convergence to 1.0D-05 achieved.  Increase integral accuracy.
 SCF Done:  E(RB3LYP) =  -941.274126915     A.U. after   11 cycles
            NFock= 11  Conv=0.37D-08     -V/T= 2.0058
 Calling FoFJK, ICntrl=      2127 FMM=F ISym2X=0 I1Cent= 0 IOpClX= 0 NMat=1 NMatS=1 NMatT=0.
 ***** Axes restored to original set *****
 -------------------------------------------------------------------
 Center     Atomic                   Forces (Hartrees/Bohr)
 Number     Number              X              Y              Z
 -------------------------------------------------------------------
      1        6           0.000853573    0.000162968    0.000000190
      2        9          -0.000422770    0.000044119    0.000314459
      3        9          -0.000422616    0.000044052   -0.000314504
      4        9          -0.000091093   -0.000292079   -0.000000039
      5        6           0.000394850   -0.001394147    0.000000208
      6        6          -0.000476855   -0.000320210   -0.000000816
      7        6           0.000184153    0.000649431    0.000002244
      8        8          -0.000449458   -0.000140842   -0.000000716
      9        6          -0.000694379    0.000231907   -0.000000461
     10        9           0.000228332   -0.000374863   -0.000277892
     11        9           0.000228161   -0.000374365    0.000277611
     12        9           0.000470245    0.000155339    0.000000077
     13        1           0.000058179   -0.000071994   -0.000000066
     14        8           0.000628205    0.001516518   -0.000000142
     15        1          -0.000488527    0.000164167   -0.000000153
 -------------------------------------------------------------------
 Cartesian Forces:  Max     0.001516518 RMS     0.000442312

 GradGradGradGradGradGradGradGradGradGradGradGradGradGradGradGradGradGrad
 Berny optimization.
 Using GEDIIS/GDIIS optimizer.
 FormGI is forming the generalized inverse of G from B-inverse, IUseBI=4.
 Internal  Forces:  Max     0.001658626 RMS     0.000344730
 Search for a local minimum.
 Step number   4 out of a maximum of   68
 All quantities printed in internal units (Hartrees-Bohrs-Radians)
 Mixed Optimization -- En-DIIS/RFO-DIIS
 Swapping is turned off.
 Update second derivatives using D2CorX and points    1    2    3    4
 DE= -4.15D-05 DEPred=-4.57D-05 R= 9.09D-01
 TightC=F SS=  1.41D+00  RLast= 1.47D-02 DXNew= 5.0454D-01 4.4013D-02
 Trust test= 9.09D-01 RLast= 1.47D-02 DXMaxT set to 3.00D-01
 ITU=  1  0  1  0
     Eigenvalues ---    0.00230   0.00537   0.00824   0.01620   0.01775
     Eigenvalues ---    0.02181   0.02747   0.02941   0.10700   0.10969
     Eigenvalues ---    0.11107   0.11174   0.13716   0.16003   0.21876
     Eigenvalues ---    0.23611   0.25000   0.25000   0.25000   0.25000
     Eigenvalues ---    0.25000   0.25000   0.25017   0.27022   0.28589
     Eigenvalues ---    0.31087   0.36150   0.36990   0.39026   0.50251
     Eigenvalues ---    0.59454   0.59720   0.60615   0.61044   0.61443
     Eigenvalues ---    0.64064   0.67868   0.78861   0.92542
 En-DIIS/RFO-DIIS/Sim-DIIS IScMMF=       -3 using points:     4    3
 RFO step:  Lambda=-1.32170084D-05.
 DidBck=F Rises=F RFO-DIIS coefs:    1.01854   -0.01854
[...]
     1  C   -0.001625  -0.052187   0.004444
     2  F   -0.000048   0.001233  -0.000456
     3  F   -0.000048   0.001233  -0.000456
     4  F   -0.001059   0.003863  -0.000391
     5  C   -0.013150   0.394413  -0.021168
     6  C    0.391338  -0.076096  -0.011480
     7  C   -0.018512  -0.010734  -0.000782
     8  O    0.003906  -0.031487   0.040027
     9  C    0.003637   0.001277   0.000742
    10  F   -0.000692   0.000192  -0.000095
    11  F   -0.000691   0.000192  -0.000095
    12  F    0.000016   0.000264  -0.000310
    13  H    0.389980   0.003428   0.000386
    14  O    0.003428   8.018718   0.301133
    15  H    0.000386   0.301133   0.237910
 Mulliken charges:
               1
     1  C    0.730511
     2  F   -0.263847
     3  F   -0.263847
     4  F   -0.291035
     5  C    0.424937
     6  C   -0.345384
     7  C    0.535243
     8  O   -0.554926
     9  C    0.662383
    10  F   -0.257985
    11  F   -0.257990
    12  F   -0.256344
    13  H    0.243135
    14  O   -0.555443
    15  H    0.450592
 Sum of Mulliken charges =  -0.00000
 Mulliken charges with hydrogens summed into heavy atoms:
               1
     1  C    0.730511
     2  F   -0.263847
     3  F   -0.263847
     4  F   -0.291035
     5  C    0.424937
     6  C   -0.102249
     7  C    0.535243
     8  O   -0.554926
     9  C    0.662383
    10  F   -0.257985
    11  F   -0.257990
    12  F   -0.256344
    14  O   -0.104851
 Electronic spatial extent (au):  <R**2>=           2823.1248
 Charge=             -0.0000 electrons
 Dipole moment (field-independent basis, Debye):
    X=             -0.0945    Y=             -0.9367    Z=             -0.0003  Tot=              0.9415
 Quadrupole moment (field-independent basis, Debye-Ang):
   XX=            -79.3960   YY=            -72.6252   ZZ=            -70.5048
   XY=             -0.6874   XZ=              0.0008   YZ=             -0.0004
 Traceless Quadrupole moment (field-independent basis, Debye-Ang):
   XX=             -5.2206   YY=              1.5501   ZZ=              3.6706
   XY=             -0.6874   XZ=              0.0008   YZ=             -0.0004
 Octapole moment (field-independent basis, Debye-Ang**2):
  XXX=             -0.2270  YYY=            -12.9835  ZZZ=             -0.0008  XYY=             -3.3119
  XXY=            -10.1641  XXZ=             -0.0003  XZZ=              1.5475  YZZ=             -1.2497
  YYZ=             -0.0004  XYZ=              0.0005
 Hexadecapole moment (field-independent basis, Debye-Ang**3):
 XXXX=          -2326.9735 YYYY=           -440.9965 ZZZZ=           -190.8741 XXXY=             -2.9340
 XXXZ=              0.1340 YYYX=            -11.0142 YYYZ=             -0.0124 ZZZX=              0.1339
 ZZZY=             -0.0158 XXYY=           -475.4123 XXZZ=           -420.0333 YYZZ=           -107.0597
 XXYZ=             -0.0040 YYXZ=              0.0448 ZZXY=              5.7511
 N-N= 8.848153752670D+02 E-N=-3.996052493435D+03  KE= 9.364924993263D+02
 1\1\GINC-ARTEMIY-VIRTUALBOX\SP\RHF\GFHFB2\C5H2F6O2\ARTEMIY\25-Nov-2021
 \0\\#N Geom=AllCheck Guess=TCheck SCRF=Check HF/GFHFB2 SCF=Tight\\Titl
 e Card Required\\0,1\C,0,2.5217150418,0.2779462703,0.0002410215\F,0,3.
 2258421612,-0.0624832208,-1.0805865559\F,0,3.225529253,-0.0622498173,1
 .0813453892\F,0,2.3607314351,1.6025197455,0.000074488\C,0,1.1781949365
 ,-0.4381872299,0.000123883\C,0,-0.0080302178,0.2275750198,-0.000129637
 4\C,0,-1.221559515,-0.5460817619,-0.0002102964\O,0,-1.2614431586,-1.77
 53281682,-0.000008037\C,0,-2.5490394384,0.2472650064,-0.0003961613\F,0
 ,-2.6049091417,1.035537065,1.0821379203\F,0,-2.6045767232,1.0356083764
 ,-1.082894865\F,0,-3.5979152395,-0.557684454,-0.00058356\H,0,-0.033454
 0837,1.3059161124,-0.0002623597\O,0,1.3083193571,-1.7455152488,0.00028
 64171\H,0,0.3826133334,-2.1178406949,0.0001773536\\Version=ES64L-G16Re
 vA.03\State=1-A\HF=-937.3052655\RMSD=6.568e-09\Dipole=0.0371304,0.3685
 349,-0.000134\Quadrupole=-3.881316,1.1523504,2.7289655,-0.5115775,-0.0
 005844,0.0002984\PG=C01 [X(C5H2F6O2)]\\@


 BUT 'GLORY' DOESN'T MEAN 'A NICE KNOCK DOWN ARGUMENT', ALICE OBJECTED.
 WHEN I USE A WORD, HUMPTY DUMPTY SAID, IN A RATHER SCORNFUL TONE,
 IT MEANS JUST WHAT I CHOOSE IT TO MEAN....
 NEITHER MORE NOR LESS....
 THE QUESTION IS, SAID ALICE,
 WHETHER YOU CAN MAKE WORDS MEAN SO MANY DIFFERENT THINGS...
 THE QUESTION IS, SAID HUMPTY DUMPTY,
 WHICH IS TO BE MASTER....
 THAT IS ALL.....

 ALICE THROUGH THE LOOKING GLASS
 Diagonal vibrational polarizability:
        0.0000000       0.0000000       0.0000000
    1 imaginary frequencies ignored.
 
 Temperature=              298.150000 Pressure=                      1.000000
 E(ZPE)=                     0.076362 E(Thermal)=                    0.087148
 E(QCISD(T))=             -938.945425 E(Empiric)=                   -0.263986
 E(CCSD(T))=                -0.263986 E(Empiric)=                   -0.073434
 DE(Plus)=                  -0.617658 DE(2DF)=                      -1.050133
 E(Delta-G3XP)=             -0.106917 DE(HF)=                     -940.981192
 G4(0 K)=                 -940.970406 G4 Energy=                  -940.969461
 G4 Enthalpy=             -941.019448 G4 Free Energy=    
 1\1\GINC-ARTEMIY-VIRTUALBOX\Mixed\G4\G4\C5H2F6O2\ARTEMIY\25-Nov-2021\0
 \\# g4 geom=gic\\Title Card Required\\0,1\C,0,2.5217150418,0.277946270
 3,0.0002410215\F,0,3.2258421612,-0.0624832208,-1.0805865559\F,0,3.2255
 29253,-0.0622498173,1.0813453892\F,0,2.3607314351,1.6025197455,0.00007
 4488\C,0,1.1781949365,-0.4381872299,0.000123883\C,0,-0.0080302178,0.22
 75750198,-0.0001296374\C,0,-1.221559515,-0.5460817619,-0.0002102964\O,
 0,-1.2614431586,-1.7753281682,-0.000008037\C,0,-2.5490394384,0.2472650
 064,-0.0003961613\F,0,-2.6049091417,1.035537065,1.0821379203\F,0,-2.60
 45767232,1.0356083764,-1.082894865\F,0,-3.5979152395,-0.557684454,-0.0
 0058356\H,0,-0.0334540837,1.3059161124,-0.0002623597\O,0,1.3083193571,
 -1.7455152488,0.0002864171\H,0,0.3826133334,-2.1178406949,0.0001773536
 \\Version=ES64L-G16RevA.03\State=1-A\MP2/GTBas1=-938.8607286\MP4/GTBas
 1=-938.9638926\CCSD(T)/G3Bas1=-938.9454247\MP2/GTBas2=-938.9279576\MP4
 /GTBas2=-939.0373271\MP2/GTBas3=-939.4414976\MP4/GTBas3=-939.5815504\H
 F/GTLargeXP=-937.2026755\MP2/GTLargeXP=-940.5588599\HF/GFHFB1=-937.287
 5064\HF/GFHFB2=-937.3052655\G4=-940.9811919\FreqCoord=4.7653507932,0.5
 252423282,0.0004554646,6.0959582058,-0.1180761748,-2.0420126445,6.0953
 668949,-0.1176351059,2.0434466316,4.461135866,3.0283234281,0.000140762
 ,2.2264657513,-0.8280538559,0.000234105,-0.0151749124,0.4300544602,-0.
 0002449793,-2.3084129283,-1.0319449716,-0.0003974026,-2.3837820915,-3.
 3548840191,-0.0000151877,-4.8169864193,0.4672631423,-0.0007486363,-4.9
 225648573,1.9568814447,2.0449442983,-4.9219366773,1.9570162038,-2.0463
 747166,-6.799074422,-1.0538708819,-0.0011027685,-0.063219056,2.4678237
 942,-0.0004957881,2.4723652685,-3.2985457665,0.0005412499,0.7230344117
 ,-4.0021388889,0.0003351497\PG=C01 [X(C5H2F6O2)]\NImag=1\\0.58577200,0
 .02207798,0.57203490,0.00000845,-0.00000322,0.51482602,-0.15996845,0.0
 1780056,0.10215199,0.16608447,0.02139162,-0.08362333,-0.02977215,-0.04
 928726,0.09866180,0.09923728,-0.02642160,-0.19568499,-0.14451099,0.068
 71970,0.29774299,-0.15991066,0.01777084,-0.10214586,0.02411525,-0.0020
 1956,0.00863655,0.16600135,0.02136169,-0.08361131,0.02975426,-0.002020
 66,0.01418361,-0.00273481,-0.04923630,0.09863210,-0.09923208,0.0264026
 3,-0.19575584,-0.00860477,0.00271302,-0.08405915,0.14448404,-0.0686911
 2,0.29785680,-0.08312494,-0.00017258,-0.00000128,0.00030160,0.03844285
 ,0.01634974,0.00031074,0.03842570,-0.01635591,0.08537187,-0.00937577,-
 0.28291268,0.00002122,0.02667044,-0.03875488,-0.03429744,0.02665725,-0
 .03873725,0.03431203,-0.04024932,0.40548758,-0.00000027,0.00002261,-0.
 07394411,0.01520710,-0.04709593,-0.00698766,-0.01521076,0.04711392,-0.
 00701437,0.00000520,-0.00004103,0.07962405,-0.17904668,-0.05093773,-0.
 00001091,-0.02624074,-0.00582783,0.01835185,-0.02622392,-0.00583032,-0
 .01835433,0.00801531,0.01091683,-0.00000125,0.74644719,-0.05047325,-0.
 08493251,-0.00000490,0.01185808,0.00628827,-0.00995167,0.01184681,0.00
 628944,0.00995088,-0.02625693,-0.04322300,0.00000173,-0.07865561,0.721
 33737,-0.00001122,-0.00000518,-0.06506018,0.03979849,0.00503242,-0.013
 62156,-0.03980489,-0.00503835,-0.01363945,0.00000290,0.00000711,0.0078
 8859,0.00009151,-0.00007038,0.19690335,-0.00517668,0.01718682,-0.00000
 458,-0.00620371,-0.00152008,0.00332418,-0.00620341,-0.00152083,-0.0033
 2593,-0.00546870,-0.00306751,-0.00000040,-0.35447828,0.09302883,-0.000
 05481,0.67105819,-0.00563756,0.01605031,-0.00000157,-0.00543029,-0.001
 39623,0.00371651,-0.00542902,-0.00139709,-0.00371767,0.00003199,-0.001
 02872,0.00000006,0.13352696,-0.19035300,0.00003516,-0.07213571,0.75699
 688,-0.00000159,0.00000185,0.01013987,-0.00146276,0.00009107,0.0006728
 5,0.00146187,-0.00009110,0.00067304,-0.00000080,-0.00000030,-0.0004004
 2,-0.00006031,0.00002919,-0.05979341,0.00009000,-0.00009153,0.09530438
 ,-0.01312554,0.00038973,-0.00000334,0.00263300,-0.00024858,-0.00053841
 ,0.00263209,-0.00024861,0.00053916,0.00284837,0.00169740,0.00000023,-0
 .05720800,0.01835119,-0.00001071,-0.21708792,-0.07058949,-0.00001266,0
 .56950729,-0.00722311,-0.00679460,0.00000126,0.00420273,0.00042531,-0.
 00225397,0.00420309,0.00042597,0.00225534,0.00024065,0.00147665,-0.000
 00011,-0.01600483,0.06358363,-0.00000897,-0.02023915,-0.14481758,0.000
 00360,0.02892459,0.88052126,-0.00000215,0.00000199,0.00961919,-0.00279
 072,-0.00046653,0.00042813,0.00279014,0.00046645,0.00042833,0.00000025
 ,0.00000007,0.00016941,-0.00000463,-0.00000591,0.00408677,-0.00001718,
 -0.00000124,-0.07199641,0.00003516,-0.00009397,0.21886782,0.00330142,0
 .00033522,0.00000065,-0.00066032,-0.00028739,0.00012066,-0.00066021,-0
 .00028737,-0.00012082,-0.00126855,-0.00139928,-0.00000004,-0.00396324,
 0.01718742,-0.00000190,0.01853671,-0.04276169,0.00000666,-0.11713206,-
 0.02713906,-0.00000089,0.12629283,0.00817066,0.00098461,0.00000104,-0.
 00274224,0.00030493,0.00131767,-0.00274196,0.00030461,-0.00131859,-0.0
 0148721,0.00049027,-0.00000034,0.02766437,-0.04324546,0.00000836,-0.06
 482379,-0.04886269,0.00000232,0.00500978,-0.63576824,0.00009071,0.0367
 9648,0.73933065,-0.00000064,-0.00000009,-0.00047884,0.00010493,0.00006
 229,0.00006677,-0.00010432,-0.00006243,0.00006713,0.00000015,-0.000000
 25,-0.00022851,-0.00000463,0.00000749,-0.00236396,0.00000829,0.0000044
 0,0.01927880,-0.00000467,0.00009111,-0.06621913,0.00000536,-0.00010757
 ,0.03589305,-0.00608793,-0.00183648,-0.00000080,0.00192263,0.00020663,
 -0.00083450,0.00192246,0.00020679,0.00083514,0.00135254,0.00108233,0.0
 0000010,-0.00811518,0.00563536,-0.00000224,-0.00904480,0.00963617,-0.0
 0000101,-0.17162727,0.02890748,-0.00001270,0.01118005,0.00741436,-0.00
 000198,0.60357236,0.00161085,0.00399730,-0.00000058,-0.00118924,-0.000
 57835,0.00061362,-0.00118938,-0.00057849,-0.00061401,-0.00029079,-0.00
 152649,0.00000013,-0.00390991,-0.00626847,0.00000077,-0.01891532,0.015
 62373,-0.00000204,0.03868561,-0.07257112,0.00000329,0.02461478,-0.0429
 0399,0.00000935,0.00765518,0.55966415,-0.00000068,-0.00000084,-0.00118
 095,0.00088259,-0.00003880,-0.00065976,-0.00088179,0.00003886,-0.00065
 980,0.00000016,0.00000031,-0.00017436,-0.00000134,0.00000178,0.0026298
 8,-0.00000208,0.00000079,0.01233702,-0.00001064,-0.00000086,-0.0690662
 0,-0.00000612,0.00001187,0.01417700,0.00001474,-0.00000532,0.48834635,
 0.00192175,0.00075652,0.00057673,-0.00077212,-0.00009309,0.00029106,-0
 .00047502,-0.00007432,-0.00023182,-0.00038996,-0.00044604,-0.00001790,
 0.00248333,-0.00223919,0.00015312,-0.00441963,-0.00091296,-0.00165916,
 0.00927664,0.01894216,0.02309586,-0.00527585,0.00437941,-0.00176446,-0
 .08743766,0.02338680,0.03108273,0.07101350,-0.00120888,-0.00135680,-0.
 00102421,0.00064079,0.00022894,-0.00013364,0.00035354,0.00017891,0.000
 27134,0.00024120,0.00073627,0.00011832,-0.00065922,0.00209205,0.001103
 52,0.00486240,-0.00158616,0.00327656,-0.00374490,-0.01356658,-0.030468
 73,0.00643343,-0.00365516,0.00268914,0.02790985,-0.15544182,-0.1003632
 3,-0.00388519,0.18493726,-0.00070233,-0.00070748,-0.00089072,0.0002968
 9,0.00014113,0.00007419,0.00031580,0.00007090,0.00033406,0.00016370,0.
 00038877,0.00014999,-0.00023689,0.00076897,0.00040495,0.00241675,0.000
 00189,0.00227182,-0.00472203,-0.01428605,-0.01340708,0.00620660,-0.004
 90475,0.00086779,0.02907820,-0.09653693,-0.18798626,-0.01399059,0.1536
 1876,0.28804408,0.00192161,0.00075600,-0.00057583,-0.00047501,-0.00007
 423,0.00023159,-0.00077185,-0.00009309,-0.00029126,-0.00038993,-0.0004
 4585,0.00001783,0.00248290,-0.00223799,-0.00015234,-0.00441920,-0.0009
 1346,0.00165622,0.00928382,0.01893843,-0.02308813,-0.00527642,0.004380
 66,0.00176158,-0.08742152,0.02335714,-0.03104750,0.01497056,-0.0040595
 1,0.00288138,0.07100786,-0.00120917,-0.00135670,0.00102406,0.00035358,
 0.00017888,-0.00027120,0.00064074,0.00022899,0.00013377,0.00024121,0.0
 0073638,-0.00011839,-0.00065900,0.00209182,-0.00110395,0.00486331,-0.0
 0158633,-0.00327483,-0.00375849,-0.01356850,0.03046805,0.00643741,-0.0
 0365836,-0.00268614,0.02788358,-0.15545427,0.10037338,-0.00405714,0.02
 495998,-0.00810133,-0.00384037,0.18495915,0.00070292,0.00070761,-0.000
 89057,-0.00031597,-0.00007089,0.00033396,-0.00029700,-0.00014116,0.000
 07410,-0.00016379,-0.00038896,0.00015001,0.00023727,-0.00076912,0.0004
 0503,-0.00241811,-0.00000201,0.00227094,0.00473103,0.01429263,-0.01340
 894,-0.00620954,0.00490599,0.00086463,-0.02904713,0.09654652,-0.187990
 16,-0.00285196,0.00810737,-0.08235829,0.01392473,-0.15362801,0.2880325
 5,0.00260965,0.00164486,0.00000003,-0.00122894,-0.00014775,0.00068311,
 -0.00122883,-0.00014790,-0.00068344,-0.00055624,-0.00039973,-0.0000000
 2,-0.00043531,-0.00602460,0.00000088,-0.00820127,0.00863128,-0.0000017
 6,-0.04104868,-0.03656778,-0.00000756,0.00500582,0.00151955,0.00000111
 ,-0.25211669,-0.09213462,-0.00003108,-0.00007466,-0.02715385,-0.021581
 30,-0.00009195,-0.02716600,0.02158152,0.29716977,0.00026175,-0.0004435
 9,0.00000005,-0.00008988,0.00008843,0.00006471,-0.00008984,0.00008841,
 -0.00006472,-0.00006015,0.00026089,-0.00000003,0.00071810,-0.00086409,
 0.00000008,0.00010270,0.00004394,0.00000004,0.00257058,-0.00272839,0.0
 0000125,0.00584284,0.00548439,0.00000020,-0.10879289,-0.14147841,-0.00
 001825,-0.03811753,-0.03793642,-0.03080395,-0.03812905,-0.03794107,0.0
 3079032,0.17567832,0.21383650,0.00000042,0.00000029,-0.00008869,-0.000
 04957,0.00001397,0.00007480,0.00004917,-0.00001402,0.00007461,-0.00000
 009,-0.00000008,0.00003573,-0.00000008,-0.00000097,-0.00019145,-0.0000
 0122,0.00000146,0.00021640,-0.00000819,-0.00000451,0.00899323,0.000000
 73,-0.00000087,-0.00090160,-0.00002863,-0.00001529,-0.07453867,-0.0336
 5786,-0.03669102,-0.00645395,0.03365672,0.03668041,-0.00643253,0.00003
 865,0.00003039,0.07967293,0.00001738,0.00367331,0.00000018,0.00032377,
 -0.00055715,-0.00044376,0.00032408,-0.00055703,0.00044411,-0.00170164,
 -0.00267628,0.00000014,0.00575738,0.02894624,-0.00000233,-0.05587114,0
 .00605593,-0.00000534,0.00906456,-0.02525801,0.00000455,-0.00599465,-0
 .00437072,-0.00000075,-0.00039101,-0.00240217,0.00000072,-0.00040895,0
 .00095966,0.00055770,-0.00040896,0.00096009,-0.00055820,0.00069817,0.0
 0058565,0.00000003,0.05591182,0.00029379,-0.00142693,-0.00000020,-0.00
 005042,0.00011339,0.00011029,-0.00005068,0.00011335,-0.00011044,-0.003
 10346,0.00042730,-0.00000060,-0.00090290,-0.01172285,0.00000103,0.0082
 8178,-0.35515695,0.00004070,0.00403405,-0.00965294,0.00000130,-0.00205
 205,0.00018876,0.00000028,-0.00072306,-0.00135611,0.00000044,0.0007295
 8,0.00050108,0.00011578,0.00073043,0.00050151,-0.00011588,0.00016277,0
 .00031620,-0.00000003,-0.00779966,0.37437016,0.00000066,0.00000047,-0.
 00343206,0.00118379,0.00006131,-0.00040772,-0.00118362,-0.00006162,-0.
 00040790,0.00000010,-0.00000054,-0.00052901,0.00000166,0.00000472,-0.0
 0257054,-0.00000596,0.00004060,-0.02499874,0.00000147,-0.00000295,-0.0
 0405796,-0.00000117,0.00000010,0.00541198,-0.00000004,-0.00000012,0.00
 184806,-0.00030710,-0.00088998,-0.00100513,0.00030699,0.00089007,-0.00
 100544,0.00000009,0.00000007,-0.00033001,0.00000573,-0.00004358,0.0221
 8979,0.00780194,-0.03165143,0.00000503,0.00067680,-0.00040508,-0.00114
 894,0.00067636,-0.00040465,0.00114875,-0.00615730,-0.01181998,0.000000
 19,-0.12886427,0.02114437,-0.00001350,0.01504306,0.04223111,-0.0000052
 4,-0.00772705,-0.02010076,0.00000266,-0.03954784,0.01943384,-0.0000073
 9,0.00328739,-0.00012264,0.00000025,-0.00116748,0.00133622,0.00109487,
 -0.00116740,0.00133638,-0.00109526,0.00003736,0.00059398,0.,-0.0052520
 5,0.00105145,-0.00000223,0.47904243,-0.00290138,-0.04119092,0.00000346
 ,-0.00110441,0.00311314,0.00158183,-0.00110395,0.00311269,-0.00158245,
 -0.00500641,-0.00208428,-0.00000034,0.03633937,-0.38080470,0.00004106,
 0.05600809,-0.04355158,0.00001526,-0.03339180,-0.04316163,0.00000137,-
 0.01587857,0.04113943,-0.00000690,-0.00598528,-0.00011818,-0.00000083,
 0.00185605,-0.00017263,0.00027545,0.00185573,-0.00017228,-0.00027560,0
 .00296611,0.00127667,0.00000044,0.00330231,0.00248270,0.00000169,0.060
 29692,0.54437400,0.00000192,-0.00000055,-0.00209696,-0.00078374,0.0003
 7289,0.00183623,0.00078363,-0.00037323,0.00183718,-0.00000063,-0.00000
 148,0.00142531,-0.00001489,0.00003823,-0.05795844,-0.00000636,0.000013
 03,0.01741278,0.00000312,0.00000082,-0.00536135,-0.00000430,-0.0000008
 5,0.00505855,0.00000125,-0.00000009,-0.00016751,-0.00033049,-0.0001034
 4,0.00001650,0.00032983,0.00010374,0.00001632,-0.00000032,-0.00000002,
 0.00003486,-0.00000273,0.00000107,0.01019890,0.00006100,-0.00004318,0.
 05275381,0.00309514,0.00220637,-0.00000048,-0.00050822,0.00042690,0.00
 025056,-0.00050843,0.00042690,-0.00025084,0.00085684,0.00285552,-0.000
 00016,0.01938951,-0.04211072,0.00000704,-0.02806324,0.00369675,-0.0000
 0411,0.01971073,0.04817355,-0.00000466,0.01546232,-0.03860319,0.000007
 42,-0.00099537,0.00084370,0.00000005,0.00075556,-0.00202557,-0.0017787
 3,0.00075547,-0.00202614,0.00177951,-0.00053822,-0.00107459,-0.0000000
 8,-0.00206878,-0.00060162,-0.00000035,-0.31668195,-0.09725277,-0.00003
 730,0.28933863,0.00286078,-0.00541777,0.00000147,0.00038822,0.00076608
 ,-0.00006001,0.00038842,0.00076606,0.00005999,-0.00099675,-0.00134802,
 0.,-0.04577829,-0.04026851,-0.00000267,-0.00211154,0.00102147,-0.00000
 077,0.01231893,-0.00380324,0.00000190,-0.00784216,-0.01013376,-0.00000
 090,0.00079995,-0.00100949,0.00000070,-0.00022507,0.00008108,-0.000041
 15,-0.00022486,0.00008080,0.00004118,-0.00086065,-0.00000344,-0.000000
 18,-0.00086216,0.00030134,-0.00000025,-0.08291972,-0.08424242,-0.00000
 694,0.12506491,0.14320982,-0.00000070,0.00000152,0.00491884,-0.0011072
 5,0.00023650,0.00019090,0.00110705,-0.00023655,0.00019123,0.00000029,0
 .00000055,-0.00016465,0.00000695,-0.00000004,0.00288042,-0.00000257,0.
 00000010,-0.00338892,0.00000048,0.00000665,0.00092418,0.00000411,-0.00
 000509,-0.01149366,-0.00000040,0.00000071,0.00308536,-0.00038818,0.000
 48922,-0.00006195,0.00038819,-0.00048963,-0.00006160,0.00000011,-0.000
 00013,-0.00016566,-0.00000005,-0.00000019,-0.00090422,-0.00004017,-0.0
 0001127,-0.02500618,0.00003215,0.00000763,0.02905590\\-0.00010554,-0.0
 0009093,-0.00000034,-0.00000390,-0.00002065,-0.00002764,-0.00000419,-0
 .00002063,0.00002748,-0.00002013,0.00006624,0.,0.00005498,0.00028337,0
 .00000069,0.00007201,-0.00007758,0.00000415,-0.00009829,-0.00001241,-0
 .00001382,0.00001514,0.00012777,0.00000646,0.00007605,0.00002873,0.000
 00340,0.00003095,-0.00002492,0.00000895,0.00003168,-0.00002668,-0.0000
 0825,-0.00003101,-0.00005599,-0.00000025,-0.00000652,-0.00002410,0.000
 00045,-0.00002157,-0.00011954,0.00000087,0.00001035,-0.00003267,-0.000
 00217\\\@
 Job cpu time:       0 days 17 hours 25 minutes 44.7 seconds.
 Elapsed time:       0 days  2 hours 29 minutes 27.0 seconds.
 File lengths (MBytes):  RWF= 134810 Int=      0 D2E=      0 Chk=    119 Scr=      1
 Normal termination of Gaussian 16 at Thu Nov 25 22:08:38 2021.
