 Entering Gaussian System, Link 0=/home/artemiy/opt/gaussian/g16/g16
 Input=1,1,1,5,5,5-Hexafluoro-2,4-pentanedione_enol_G3MP2.gjf
 Output=1,1,1,5,5,5-Hexafluoro-2,4-pentanedione_enol_G3MP2.log
 Initial command:
 /home/artemiy/opt/gaussian/g16/l1.exe "/home/artemiy/opt/gaussian/scr/Gau-4299.inp" -scrdir="/home/artemiy/opt/gaussian/scr/"
 Entering Link 1 = /home/artemiy/opt/gaussian/g16/l1.exe PID=      4301.
  
 Copyright (c) 1988,1990,1992,1993,1995,1998,2003,2009,2016,
            Gaussian, Inc.  All Rights Reserved.
  
 This is part of the Gaussian(R) 16 program.  It is based on
 the Gaussian(R) 09 system (copyright 2009, Gaussian, Inc.),
 the Gaussian(R) 03 system (copyright 2003, Gaussian, Inc.),
 the Gaussian(R) 98 system (copyright 1998, Gaussian, Inc.),
 the Gaussian(R) 94 system (copyright 1995, Gaussian, Inc.),
 the Gaussian 92(TM) system (copyright 1992, Gaussian, Inc.),
 the Gaussian 90(TM) system (copyright 1990, Gaussian, Inc.),
 the Gaussian 88(TM) system (copyright 1988, Gaussian, Inc.),
 the Gaussian 86(TM) system (copyright 1986, Carnegie Mellon
 University), and the Gaussian 82(TM) system (copyright 1983,
 Carnegie Mellon University). Gaussian is a federally registered
 trademark of Gaussian, Inc.
  
 This software contains proprietary and confidential information,
 including trade secrets, belonging to Gaussian, Inc.
  
 This software is provided under written license and may be
 used, copied, transmitted, or stored only in accord with that
 written license.
  
 The following legend is applicable only to US Government
 contracts under FAR:
  
                    RESTRICTED RIGHTS LEGEND
  
 Use, reproduction and disclosure by the US Government is
 subject to restrictions as set forth in subparagraphs (a)
 and (c) of the Commercial Computer Software - Restricted
 Rights clause in FAR 52.227-19.
  
 Gaussian, Inc.
 340 Quinnipiac St., Bldg. 40, Wallingford CT 06492
  
  
 ---------------------------------------------------------------
 Warning -- This program may not be used in any manner that
 competes with the business of Gaussian, Inc. or will provide
 assistance to any competitor of Gaussian, Inc.  The licensee
 of this program is prohibited from giving any competitor of
 Gaussian, Inc. access to this program.  By using this program,
 the user acknowledges that Gaussian, Inc. is engaged in the
 business of creating and licensing software in the field of
 computational chemistry and represents and warrants to the
 licensee that it is not a competitor of Gaussian, Inc. and that
 it will not use this program in any manner prohibited above.
 ---------------------------------------------------------------
  

 Cite this work as:
 Gaussian 16, Revision A.03,
 M. J. Frisch, G. W. Trucks, H. B. Schlegel, G. E. Scuseria, 
 M. A. Robb, J. R. Cheeseman, G. Scalmani, V. Barone, 
 G. A. Petersson, H. Nakatsuji, X. Li, M. Caricato, A. V. Marenich, 
 J. Bloino, B. G. Janesko, R. Gomperts, B. Mennucci, H. P. Hratchian, 
 J. V. Ortiz, A. F. Izmaylov, J. L. Sonnenberg, D. Williams-Young, 
 F. Ding, F. Lipparini, F. Egidi, J. Goings, B. Peng, A. Petrone, 
 T. Henderson, D. Ranasinghe, V. G. Zakrzewski, J. Gao, N. Rega, 
 G. Zheng, W. Liang, M. Hada, M. Ehara, K. Toyota, R. Fukuda, 
 J. Hasegawa, M. Ishida, T. Nakajima, Y. Honda, O. Kitao, H. Nakai, 
 T. Vreven, K. Throssell, J. A. Montgomery, Jr., J. E. Peralta, 
 F. Ogliaro, M. J. Bearpark, J. J. Heyd, E. N. Brothers, K. N. Kudin, 
 V. N. Staroverov, T. A. Keith, R. Kobayashi, J. Normand, 
 K. Raghavachari, A. P. Rendell, J. C. Burant, S. S. Iyengar, 
 J. Tomasi, M. Cossi, J. M. Millam, M. Klene, C. Adamo, R. Cammi, 
 J. W. Ochterski, R. L. Martin, K. Morokuma, O. Farkas, 
 J. B. Foresman, and D. J. Fox, Gaussian, Inc., Wallingford CT, 2016.
 
 ******************************************
 Gaussian 16:  ES64L-G16RevA.03 25-Dec-2016
                26-Nov-2021 
 ******************************************
 %mem=47GB
 %nprocshared=7
 Will use up to    7 processors via shared memory.
 ----------------
 # g3mp2 geom=gic
 ----------------
 1/18=20,19=15,38=1,145=2/1,3;
 2/9=110,12=2,17=6,18=5,40=1/2;
 3/5=33,7=1,11=9,25=1,30=1,71=1/1,2,3;
 4//1;
 5/5=2,38=5/2;
 6/7=2,8=2,9=2,10=2,28=1/1;
 7//1,2,3,16;
 1/18=20,19=15,145=2/3(2);
 2/9=110/2;
 99//99;
 2/9=110/2;
 3/5=33,7=1,11=9,25=1,30=1,71=1/1,2,3;
 4/5=5,16=3,69=1/1;
 5/5=2,38=5/2;
 7//1,2,3,16;
 1/18=20,19=15,145=2/3(-5);
 2/9=110/2;
 6/7=2,8=2,9=2,10=2,19=2,28=1/1;
 99/9=1/99;
 -------------------
 CAS 1522-22-1
 -------------------
 Symbolic Z-matrix:
 Charge =  0 Multiplicity = 1
 C                     2.49858   0.29125  -0.00004 
 F                     3.22811  -0.01159  -1.07499 
 F                     3.22528  -0.00739   1.07805 
 F                     2.31641   1.61333  -0.00282 
 C                     1.17139  -0.46894  -0.00019 
 C                    -0.01751   0.18922  -0.00028 
 C                    -1.23024  -0.58454  -0.00021 
 O                    -1.28949  -1.79999  -0.00009 
 C                    -2.52467   0.26643  -0.00004 
 F                    -2.56747   1.06261   1.07854 
 F                    -2.56561   1.06631  -1.07594 
 F                    -3.6242   -0.47581  -0.00227 
 H                    -0.06459   1.26407  -0.00046 
 O                     1.32799  -1.76634   0. 
 H                     0.43802  -2.21163   0.00005 
 
 Initializing the GIC definitions file.

 GradGradGradGradGradGradGradGradGradGradGradGradGradGradGradGradGradGrad
 Berny optimization.
 Initialization pass.
                           ----------------------------
                           !    Initial Parameters    !
                           ! (Angstroms and Degrees)  !
 --------------------------                            --------------------------
 ! Name  Definition              Value          Derivative Info.                !
 --------------------------------------------------------------------------------
 ! R1    R(1,2)                  1.334          estimate D2E/DX2                !
 ! R2    R(1,3)                  1.334          estimate D2E/DX2                !
 ! R3    R(1,4)                  1.3346         estimate D2E/DX2                !
 ! R4    R(1,5)                  1.5295         estimate D2E/DX2                !
 ! R5    R(5,6)                  1.3589         estimate D2E/DX2                !
 ! R6    R(5,14)                 1.3068         estimate D2E/DX2                !
 ! R7    R(6,7)                  1.4385         estimate D2E/DX2                !
 ! R8    R(6,13)                 1.0759         estimate D2E/DX2                !
 ! R9    R(7,8)                  1.2169         estimate D2E/DX2                !
 ! R10   R(7,9)                  1.5491         estimate D2E/DX2                !
 ! R11   R(9,10)                 1.3413         estimate D2E/DX2                !
 ! R12   R(9,11)                 1.3413         estimate D2E/DX2                !
 ! R13   R(9,12)                 1.3266         estimate D2E/DX2                !
 ! R14   R(14,15)                0.9952         estimate D2E/DX2                !
 ! A1    A(2,1,3)              107.6079         estimate D2E/DX2                !
 ! A2    A(2,1,4)              107.33           estimate D2E/DX2                !
 ! A3    A(2,1,5)              111.2013         estimate D2E/DX2                !
 ! A4    A(3,1,4)              107.3267         estimate D2E/DX2                !
 ! A5    A(3,1,5)              111.1928         estimate D2E/DX2                !
 ! A6    A(4,1,5)              111.9576         estimate D2E/DX2                !
 ! A7    A(1,5,6)              121.2286         estimate D2E/DX2                !
 ! A8    A(1,5,14)             112.921          estimate D2E/DX2                !
 ! A9    A(6,5,14)             125.8503         estimate D2E/DX2                !
 ! A10   A(5,6,7)              118.4928         estimate D2E/DX2                !
 ! A11   A(5,6,13)             121.4765         estimate D2E/DX2                !
 ! A12   A(7,6,13)             120.0307         estimate D2E/DX2                !
 ! A13   A(6,7,8)              125.3297         estimate D2E/DX2                !
 ! A14   A(6,7,9)              114.1395         estimate D2E/DX2                !
 ! A15   A(8,7,9)              120.5309         estimate D2E/DX2                !
 ! A16   A(7,9,10)             110.661          estimate D2E/DX2                !
 ! A17   A(7,9,11)             110.6716         estimate D2E/DX2                !
 ! A18   A(7,9,12)             112.6569         estimate D2E/DX2                !
 ! A19   A(10,9,11)            106.8622         estimate D2E/DX2                !
 ! A20   A(10,9,12)            107.8799         estimate D2E/DX2                !
 ! A21   A(11,9,12)            107.879          estimate D2E/DX2                !
 ! A22   A(5,14,15)            109.6987         estimate D2E/DX2                !
 ! D1    D(2,1,5,6)           -120.1875         estimate D2E/DX2                !
 ! D2    D(2,1,5,14)            59.8227         estimate D2E/DX2                !
 ! D3    D(3,1,5,6)            119.9185         estimate D2E/DX2                !
 ! D4    D(3,1,5,14)           -60.0713         estimate D2E/DX2                !
 ! D5    D(4,1,5,6)             -0.1295         estimate D2E/DX2                !
 ! D6    D(4,1,5,14)           179.8807         estimate D2E/DX2                !
 ! D7    D(1,5,6,7)           -179.9906         estimate D2E/DX2                !
 ! D8    D(1,5,6,13)             0.0125         estimate D2E/DX2                !
 ! D9    D(14,5,6,7)            -0.0022         estimate D2E/DX2                !
 ! D10   D(14,5,6,13)         -179.9991         estimate D2E/DX2                !
 ! D11   D(1,5,14,15)          179.9906         estimate D2E/DX2                !
 ! D12   D(6,5,14,15)            0.0014         estimate D2E/DX2                !
 ! D13   D(5,6,7,8)             -0.0011         estimate D2E/DX2                !
 ! D14   D(5,6,7,9)            179.988          estimate D2E/DX2                !
 ! D15   D(13,6,7,8)           179.9958         estimate D2E/DX2                !
 ! D16   D(13,6,7,9)            -0.0151         estimate D2E/DX2                !
 ! D17   D(6,7,9,10)           -59.2455         estimate D2E/DX2                !
 ! D18   D(6,7,9,11)            59.0239         estimate D2E/DX2                !
 ! D19   D(6,7,9,12)           179.8924         estimate D2E/DX2                !
 ! D20   D(8,7,9,10)           120.7442         estimate D2E/DX2                !
 ! D21   D(8,7,9,11)          -120.9864         estimate D2E/DX2                !
 ! D22   D(8,7,9,12)            -0.1178         estimate D2E/DX2                !
 --------------------------------------------------------------------------------
 Trust Radius=3.00D-01 FncErr=1.00D-07 GrdErr=1.00D-07 EigMax=2.50D+02 EigMin=1.00D-04
 Number of steps in this run=     68 maximum allowed number of steps=    100.
 GradGradGradGradGradGradGradGradGradGradGradGradGradGradGradGradGradGrad

                          Input orientation:                          
 ---------------------------------------------------------------------
 Center     Atomic      Atomic             Coordinates (Angstroms)
 Number     Number       Type             X           Y           Z
 ---------------------------------------------------------------------
      1          6           0        2.498584    0.291254   -0.000042
      2          9           0        3.228114   -0.011587   -1.074986
      3          9           0        3.225284   -0.007395    1.078054
      4          9           0        2.316410    1.613327   -0.002819
      5          6           0        1.171392   -0.468936   -0.000189
      6          6           0       -0.017506    0.189217   -0.000284
      7          6           0       -1.230239   -0.584541   -0.000214
      8          8           0       -1.289485   -1.799989   -0.000094
      9          6           0       -2.524667    0.266434   -0.000037
     10          9           0       -2.567470    1.062612    1.078545
     11          9           0       -2.565607    1.066307   -1.075937
     12          9           0       -3.624203   -0.475814   -0.002275
     13          1           0       -0.064592    1.264072   -0.000459
     14          8           0        1.327985   -1.766336    0.000004
     15          1           0        0.438019   -2.211626    0.000050
 ---------------------------------------------------------------------
                    Distance matrix (angstroms):
                    1          2          3          4          5
     1  C    0.000000
     2  F    1.333954   0.000000
     3  F    1.334007   2.153047   0.000000
     4  F    1.334568   2.149672   2.149669   0.000000
     5  C    1.529486   2.365261   2.365186   2.376319   0.000000
     6  C    2.518158   3.424814   3.423033   2.734092   1.358912
     7  C    3.830292   4.621723   4.620330   4.172452   2.404412
     8  O    4.326981   4.976191   4.975836   4.965200   2.797789
     9  C    5.023312   5.858950   5.856552   5.024953   3.768503
    10  F    5.236721   6.275380   5.890748   5.032387   4.181912
    11  F    5.234911   5.893137   6.271120   5.028410   4.180833
    12  F    6.170650   6.951292   6.949964   6.297253   4.795600
    13  H    2.741577   3.691047   3.688239   2.406482   2.128608
    14  O    2.367272   2.800935   2.802822   3.521237   1.306817
    15  H    3.241965   3.712211   3.713432   4.261294   1.890716
                    6          7          8          9         10
     6  C    0.000000
     7  C    1.438549   0.000000
     8  O    2.361117   1.216891   0.000000
     9  C    2.508350   1.549097   2.407442   0.000000
    10  F    2.903275   2.380130   3.315297   1.341294   0.000000
    11  F    2.901575   2.380271   3.316863   1.341281   2.154486
    12  F    3.667497   2.396433   2.684092   1.326619   2.156759
    13  H    1.075886   2.185430   3.299824   2.654666   2.732990
    14  O    2.373717   2.818005   2.617687   4.356040   4.933637
    15  H    2.443676   2.330341   1.775870   3.862420   4.573483
                   11         12         13         14         15
    11  F    0.000000
    12  F    2.156737   0.000000
    13  H    2.729623   3.962075   0.000000
    14  O    4.933719   5.117580   3.335063   0.000000
    15  H    4.574316   4.417544   3.511851   0.995150   0.000000
 Stoichiometry    C5H2F6O2
 Framework group  C1[X(C5H2F6O2)]
 Deg. of freedom    39
 Full point group                 C1      NOp   1
 Largest Abelian subgroup         C1      NOp   1
 Largest concise Abelian subgroup C1      NOp   1
                         Standard orientation:                         
 ---------------------------------------------------------------------
 Center     Atomic      Atomic             Coordinates (Angstroms)
 Number     Number       Type             X           Y           Z
 ---------------------------------------------------------------------
      1          6           0       -2.496510   -0.314253   -0.000037
      2          9           0       -3.226343   -0.012145   -1.074982
      3          9           0       -3.223509   -0.016334    1.078059
      4          9           0       -2.313010   -1.636143   -0.002814
      5          6           0       -1.170081    0.447267   -0.000184
      6          6           0        0.019477   -0.209693   -0.000279
      7          6           0        1.231433    0.565281   -0.000209
      8          8           0        1.289460    1.780788   -0.000089
      9          6           0        2.526714   -0.284396   -0.000032
     10          9           0        2.570315   -1.080530    1.078550
     11          9           0        2.568457   -1.084227   -1.075932
     12          9           0        3.625505    0.458955   -0.002270
     13          1           0        0.067641   -1.284501   -0.000455
     14          8           0       -1.327975    1.744510    0.000009
     15          1           0       -0.438456    2.190692    0.000055
 ---------------------------------------------------------------------
 Rotational constants (GHZ):           1.6721101           0.3809748           0.3479312
 Standard basis: GTBas1 (6D, 7F)
 There are   199 symmetry adapted cartesian basis functions of A   symmetry.
 There are   199 symmetry adapted basis functions of A   symmetry.
   199 basis functions,   372 primitive gaussians,   199 cartesian basis functions
    51 alpha electrons       51 beta electrons
       nuclear repulsion energy       884.4090484079 Hartrees.
 NAtoms=   15 NActive=   15 NUniq=   15 SFac= 1.00D+00 NAtFMM=   60 NAOKFM=F Big=F
 Integral buffers will be    131072 words long.
 Raffenetti 1 integral format.
 Two-electron integral symmetry is turned on.
 One-electron integrals computed using PRISM.
 NBasis=   199 RedAO= T EigKep=  1.18D-03  NBF=   199
 NBsUse=   199 1.00D-06 EigRej= -1.00D+00 NBFU=   199
 ExpMin= 1.61D-01 ExpMax= 7.00D+03 ExpMxC= 1.05D+03 IAcc=3 IRadAn=         5 AccDes= 0.00D+00
 Harris functional with IExCor=  205 and IRadAn=       5 diagonalized for initial guess.
 HarFok:  IExCor=  205 AccDes= 0.00D+00 IRadAn=         5 IDoV= 1 UseB2=F ITyADJ=14
 ICtDFT=  3500011 ScaDFX=  1.000000  1.000000  1.000000  1.000000
 FoFCou: FMM=F IPFlag=           0 FMFlag=      100000 FMFlg1=           0
         NFxFlg=           0 DoJE=T BraDBF=F KetDBF=T FulRan=T
         wScrn=  0.000000 ICntrl=       500 IOpCl=  0 I1Cent=   200000004 NGrid=           0
         NMat0=    1 NMatS0=      1 NMatT0=    0 NMatD0=    1 NMtDS0=    0 NMtDT0=    0
 Petite list used in FoFCou.
 Keep R1 ints in memory in canonical form, NReq=202016037.
 Requested convergence on RMS density matrix=1.00D-08 within 128 cycles.
 Requested convergence on MAX density matrix=1.00D-06.
 Requested convergence on             energy=1.00D-06.
 No special actions if energy rises.
 SCF Done:  E(RHF) =  -936.856508718     A.U. after   14 cycles
            NFock= 14  Conv=0.68D-08     -V/T= 2.0025

 **********************************************************************

            Population analysis using the SCF density.

 **********************************************************************

 Orbital symmetries:
       Occupied  (A) (A) (A) (A) (A) (A) (A) (A) (A) (A) (A) (A)
                 (A) (A) (A) (A) (A) (A) (A) (A) (A) (A) (A) (A)
                 (A) (A) (A) (A) (A) (A) (A) (A) (A) (A) (A) (A)
                 (A) (A) (A) (A) (A) (A) (A) (A) (A) (A) (A) (A)
                 (A) (A) (A)
       Virtual   (A) (A) (A) (A) (A) (A) (A) (A) (A) (A) (A) (A)
                 (A) (A) (A) (A) (A) (A) (A) (A) (A) (A) (A) (A)
                 (A) (A) (A) (A) (A) (A) (A) (A) (A) (A) (A) (A)
                 (A) (A) (A) (A) (A) (A) (A) (A) (A) (A) (A) (A)
                 (A) (A) (A) (A) (A) (A) (A) (A) (A) (A) (A) (A)
                 (A) (A) (A) (A) (A) (A) (A) (A) (A) (A) (A) (A)
                 (A) (A) (A) (A) (A) (A) (A) (A) (A) (A) (A) (A)
                 (A) (A) (A) (A) (A) (A) (A) (A) (A) (A) (A) (A)
                 (A) (A) (A) (A) (A) (A) (A) (A) (A) (A) (A) (A)
                 (A) (A) (A) (A) (A) (A) (A) (A) (A) (A) (A) (A)
                 (A) (A) (A) (A) (A) (A) (A) (A) (A) (A) (A) (A)
                 (A) (A) (A) (A) (A) (A) (A) (A) (A) (A) (A) (A)
                 (A) (A) (A) (A)
 The electronic state is 1-A.
 Alpha  occ. eigenvalues --  -26.37178 -26.36631 -26.36628 -26.36566 -26.36563
 Alpha  occ. eigenvalues --  -26.36277 -20.65613 -20.62203 -11.54730 -11.53765
 Alpha  occ. eigenvalues --  -11.40293 -11.39961 -11.27805  -1.75764  -1.75267
 Alpha  occ. eigenvalues --   -1.65949  -1.65570  -1.65431  -1.65400  -1.48885
 Alpha  occ. eigenvalues --   -1.44979  -1.13451  -1.05616  -1.00856  -0.92815
 Alpha  occ. eigenvalues --   -0.89676  -0.84974  -0.84573  -0.84229  -0.84172
 Alpha  occ. eigenvalues --   -0.81702  -0.78649  -0.73665  -0.73137  -0.73075
 Alpha  occ. eigenvalues --   -0.72645  -0.72517  -0.70011  -0.68306  -0.68127
 Alpha  occ. eigenvalues --   -0.67923  -0.67639  -0.66485  -0.66275  -0.64333
 Alpha  occ. eigenvalues --   -0.64310  -0.62682  -0.59255  -0.58833  -0.48169
 Alpha  occ. eigenvalues --   -0.40539
 Alpha virt. eigenvalues --    0.04042   0.19581   0.23877   0.26581   0.31819
 Alpha virt. eigenvalues --    0.33358   0.40602   0.40785   0.41457   0.42282
 Alpha virt. eigenvalues --    0.44056   0.44578   0.46497   0.49761   0.54610
 Alpha virt. eigenvalues --    0.63978   0.66653   0.67610   0.67959   0.70641
 Alpha virt. eigenvalues --    0.72088   0.73043   0.74754   0.77136   0.82296
 Alpha virt. eigenvalues --    0.84489   0.85310   0.86494   0.89664   0.90080
 Alpha virt. eigenvalues --    0.96403   1.03963   1.05508   1.06494   1.13771
 Alpha virt. eigenvalues --    1.17557   1.19078   1.22007   1.23760   1.28102
 Alpha virt. eigenvalues --    1.31156   1.31204   1.31880   1.32830   1.35693
 Alpha virt. eigenvalues --    1.37115   1.38373   1.39934   1.40745   1.44876
 Alpha virt. eigenvalues --    1.47258   1.53522   1.59490   1.60187   1.60291
 Alpha virt. eigenvalues --    1.60779   1.61726   1.62296   1.62333   1.63061
 Alpha virt. eigenvalues --    1.64688   1.64816   1.65725   1.66777   1.67698
 Alpha virt. eigenvalues --    1.68383   1.69678   1.80200   1.86217   1.86588
 Alpha virt. eigenvalues --    1.88501   1.88999   1.90490   1.91871   1.92232
 Alpha virt. eigenvalues --    1.97600   1.99032   2.00202   2.02683   2.06988
 Alpha virt. eigenvalues --    2.07789   2.09485   2.09962   2.10072   2.12184
 Alpha virt. eigenvalues --    2.12595   2.14514   2.16840   2.20217   2.23203
 Alpha virt. eigenvalues --    2.23246   2.25865   2.27074   2.29691   2.31067
 Alpha virt. eigenvalues --    2.35120   2.35397   2.37087   2.37310   2.37574
 Alpha virt. eigenvalues --    2.37599   2.40224   2.40240   2.42672   2.43620
 Alpha virt. eigenvalues --    2.46691   2.47774   2.54252   2.65160   2.68246
 Alpha virt. eigenvalues --    2.68962   2.70156   2.75439   2.81139   2.81373
 Alpha virt. eigenvalues --    2.88861   2.92610   2.95447   2.96545   3.04443
 Alpha virt. eigenvalues --    3.07258   3.10846   3.12832   3.13817   3.17895
 Alpha virt. eigenvalues --    3.26662   3.33048   3.35827   3.37928   3.38012
 Alpha virt. eigenvalues --    3.40352   3.41477   3.44630   3.48327   3.59320
 Alpha virt. eigenvalues --    4.30463   4.38563   4.54952   4.65616   4.66537
 Alpha virt. eigenvalues --    4.74498   4.75038   4.96089   5.00827   5.07453
 Alpha virt. eigenvalues --    5.30570   5.86415   6.16509
          Condensed to atoms (all electrons):
               1          2          3          4          5          6
     1  C    3.636301   0.288904   0.288850   0.301588   0.401612  -0.046889
     2  F    0.288904   9.164396  -0.034587  -0.034371  -0.036905   0.001831
     3  F    0.288850  -0.034587   9.164524  -0.034377  -0.036920   0.001822
     4  F    0.301588  -0.034371  -0.034377   9.161007  -0.044996   0.005407
     5  C    0.401612  -0.036905  -0.036920  -0.044996   4.603505   0.512457
     6  C   -0.046889   0.001831   0.001822   0.005407   0.512457   5.474891
     7  C    0.001678  -0.000033  -0.000033   0.000492  -0.043363   0.314840
     8  O    0.000180   0.000000   0.000000  -0.000000   0.006826  -0.080786
     9  C   -0.000002   0.000000   0.000000  -0.000006   0.002448  -0.078896
    10  F   -0.000002  -0.000000   0.000000   0.000000   0.000229   0.009296
    11  F   -0.000002   0.000000  -0.000000   0.000000   0.000232   0.009319
    12  F    0.000000  -0.000000  -0.000000   0.000000  -0.000036   0.002821
    13  H   -0.000607   0.000119   0.000120   0.004286  -0.015945   0.368968
    14  O   -0.044103   0.001472   0.001463   0.000591   0.336308  -0.067588
    15  H    0.002539  -0.000088  -0.000088  -0.000024  -0.015282  -0.007446
               7          8          9         10         11         12
     1  C    0.001678   0.000180  -0.000002  -0.000002  -0.000002   0.000000
     2  F   -0.000033   0.000000   0.000000  -0.000000   0.000000  -0.000000
     3  F   -0.000033   0.000000   0.000000   0.000000  -0.000000  -0.000000
     4  F    0.000492  -0.000000  -0.000006   0.000000   0.000000   0.000000
     5  C   -0.043363   0.006826   0.002448   0.000229   0.000232  -0.000036
     6  C    0.314840  -0.080786  -0.078896   0.009296   0.009319   0.002821
     7  C    4.512506   0.501675   0.409754  -0.044592  -0.044619  -0.028806
     8  O    0.501675   8.195545  -0.040618   0.000286   0.000290   0.000328
     9  C    0.409754  -0.040618   3.745439   0.270739   0.270737   0.299386
    10  F   -0.044592   0.000286   0.270739   9.194131  -0.033428  -0.032882
    11  F   -0.044619   0.000290   0.270737  -0.033428   9.194118  -0.032882
    12  F   -0.028806   0.000328   0.299386  -0.032882  -0.032882   9.139059
    13  H   -0.022604   0.001596   0.002717   0.001114   0.001133   0.000071
    14  O    0.004616  -0.028641   0.000015   0.000000   0.000000   0.000000
    15  H   -0.002944   0.044219   0.000607  -0.000009  -0.000009  -0.000004
              13         14         15
     1  C   -0.000607  -0.044103   0.002539
     2  F    0.000119   0.001472  -0.000088
     3  F    0.000120   0.001463  -0.000088
     4  F    0.004286   0.000591  -0.000024
     5  C   -0.015945   0.336308  -0.015282
     6  C    0.368968  -0.067588  -0.007446
     7  C   -0.022604   0.004616  -0.002944
     8  O    0.001596  -0.028641   0.044219
     9  C    0.002717   0.000015   0.000607
    10  F    0.001114   0.000000  -0.000009
    11  F    0.001133   0.000000  -0.000009
    12  F    0.000071   0.000000  -0.000004
    13  H    0.378982   0.001485  -0.000048
    14  O    0.001485   8.291049   0.230849
    15  H   -0.000048   0.230849   0.198837
 Mulliken charges:
               1
     1  C    1.169952
     2  F   -0.350738
     3  F   -0.350773
     4  F   -0.359598
     5  C    0.329830
     6  C   -0.420046
     7  C    0.441431
     8  O   -0.600901
     9  C    1.117681
    10  F   -0.364882
    11  F   -0.364890
    12  F   -0.347055
    13  H    0.278613
    14  O   -0.727516
    15  H    0.548891
 Sum of Mulliken charges =  -0.00000
 Mulliken charges with hydrogens summed into heavy atoms:
               1
     1  C    1.169952
     2  F   -0.350738
     3  F   -0.350773
     4  F   -0.359598
     5  C    0.329830
     6  C   -0.141433
     7  C    0.441431
     8  O   -0.600901
     9  C    1.117681
    10  F   -0.364882
    11  F   -0.364890
    12  F   -0.347055
    14  O   -0.178625
 Electronic spatial extent (au):  <R**2>=           2815.5207
 Charge=             -0.0000 electrons
 Dipole moment (field-independent basis, Debye):
    X=             -0.2003    Y=             -0.5600    Z=             -0.0015  Tot=              0.5947
 Quadrupole moment (field-independent basis, Debye-Ang):
   XX=            -79.6708   YY=            -71.2133   ZZ=            -69.4267
   XY=             -0.7575   XZ=              0.0001   YZ=              0.0005
 Traceless Quadrupole moment (field-independent basis, Debye-Ang):
   XX=             -6.2339   YY=              2.2236   ZZ=              4.0102
   XY=             -0.7575   XZ=              0.0001   YZ=              0.0005
 Octapole moment (field-independent basis, Debye-Ang**2):
  XXX=             -0.5947  YYY=            -12.6564  ZZZ=             -0.0131  XYY=             -3.9835
  XXY=            -10.6130  XXZ=             -0.0009  XZZ=              1.6190  YZZ=             -1.6415
  YYZ=              0.0137  XYZ=             -0.0006
 Hexadecapole moment (field-independent basis, Debye-Ang**3):
 XXXX=          -2287.5332 YYYY=           -436.1423 ZZZZ=           -180.5645 XXXY=             -1.6136
 XXXZ=              0.0025 YYYX=            -12.3820 YYYZ=             -0.0089 ZZZX=              0.0032
 ZZZY=              0.0061 XXYY=           -467.4693 XXZZ=           -407.6745 YYZZ=           -104.8782
 XXYZ=              0.0301 YYXZ=             -0.0008 ZZXY=              5.6631
 N-N= 8.844090484079D+02 E-N=-3.992846350750D+03  KE= 9.345171847723D+02
 Calling FoFJK, ICntrl=      2127 FMM=F ISym2X=0 I1Cent= 0 IOpClX= 0 NMat=1 NMatS=1 NMatT=0.
 ***** Axes restored to original set *****
 -------------------------------------------------------------------
 Center     Atomic                   Forces (Hartrees/Bohr)
 Number     Number              X              Y              Z
 -------------------------------------------------------------------
      1        6           0.020992306    0.008736733    0.000022621
      2        9          -0.014647482    0.001523584    0.015894091
      3        9          -0.014602493    0.001456901   -0.015950776
      4        9          -0.001540222   -0.020779850    0.000039946
      5        6          -0.011896647    0.011090581   -0.000002633
      6        6           0.023814853   -0.004271852   -0.000002974
      7        6          -0.012724061   -0.018369791    0.000006967
      8        8          -0.004766450    0.031052114   -0.000005329
      9        6          -0.024713186    0.008055040    0.000020201
     10        9           0.004943783   -0.015331097   -0.016774915
     11        9           0.004911300   -0.015386738    0.016719867
     12        9           0.020754284    0.009554680    0.000034283
     13        1           0.002097808   -0.005610078   -0.000004390
     14        8          -0.018446450   -0.005208262    0.000002460
     15        1           0.025822657    0.013488036    0.000000581
 -------------------------------------------------------------------
 Cartesian Forces:  Max     0.031052114 RMS     0.013129834

 GradGradGradGradGradGradGradGradGradGradGradGradGradGradGradGradGradGrad
 Berny optimization.
 FormGI is forming the generalized inverse of G from B-inverse, IUseBI=4.
 Internal  Forces:  Max     0.030783228 RMS     0.010455774
 Search for a local minimum.
 Step number   1 out of a maximum of   68
 All quantities printed in internal units (Hartrees-Bohrs-Radians)
 Mixed Optimization -- RFO/linear search
 Second derivative matrix not updated -- first step.
 ITU=  0
     Eigenvalues ---    0.00230   0.00376   0.00805   0.01579   0.01670
     Eigenvalues ---    0.02113   0.02632   0.02924   0.10394   0.10627
     Eigenvalues ---    0.10755   0.10884   0.16000   0.16000   0.22000
     Eigenvalues ---    0.25000   0.25000   0.25000   0.25000   0.25000
     Eigenvalues ---    0.25000   0.25000   0.25000   0.25000   0.25000
     Eigenvalues ---    0.27728   0.29471   0.36496   0.39785   0.48551
     Eigenvalues ---    0.53168   0.56916   0.56919   0.58440   0.58569
     Eigenvalues ---    0.58582   0.60311   0.65335   0.96774
 RFO step:  Lambda=-1.29211806D-02 EMin= 2.30000000D-03
 Linear search not attempted -- first point.
 Iteration  1 RMS(Cart)=  0.04608143 RMS(Int)=  0.00056689
 Iteration  2 RMS(Cart)=  0.00080060 RMS(Int)=  0.00009825
 Iteration  3 RMS(Cart)=  0.00000031 RMS(Int)=  0.00009825
 Variable       Old X    -DE/DX   Delta X   Delta X   Delta X     New X
                                 (Linear)    (Quad)   (Total)
    R1        2.52081  -0.02116   0.00000  -0.03535  -0.03535   2.48546
    R2        2.52091  -0.02117   0.00000  -0.03537  -0.03537   2.48554
    R3        2.52197  -0.02038   0.00000  -0.03411  -0.03411   2.48786
    R4        2.89031  -0.01301   0.00000  -0.04228  -0.04228   2.84803
    R5        2.56797  -0.01752   0.00000  -0.03217  -0.03217   2.53580
    R6        2.46953  -0.00734   0.00000  -0.01101  -0.01101   2.45851
    R7        2.71846   0.01000   0.00000   0.02435   0.02435   2.74282
    R8        2.03313  -0.00570   0.00000  -0.01507  -0.01507   2.01806
    R9        2.29959  -0.03078   0.00000  -0.03139  -0.03139   2.26820
   R10        2.92737  -0.01213   0.00000  -0.04179  -0.04179   2.88558
   R11        2.53468  -0.02275   0.00000  -0.03908  -0.03908   2.49560
   R12        2.53465  -0.02274   0.00000  -0.03906  -0.03906   2.49559
   R13        2.50695  -0.02255   0.00000  -0.03660  -0.03660   2.47035
   R14        1.88056  -0.02913   0.00000  -0.05844  -0.05844   1.82212
    A1        1.87811   0.00528   0.00000   0.01765   0.01735   1.89546
    A2        1.87326   0.00590   0.00000   0.02362   0.02347   1.89673
    A3        1.94083  -0.00563   0.00000  -0.02206  -0.02229   1.91854
    A4        1.87320   0.00590   0.00000   0.02364   0.02349   1.89669
    A5        1.94068  -0.00562   0.00000  -0.02202  -0.02225   1.91843
    A6        1.95403  -0.00470   0.00000  -0.01660  -0.01676   1.93727
    A7        2.11584   0.00026   0.00000   0.00098   0.00098   2.11682
    A8        1.97084  -0.00992   0.00000  -0.03772  -0.03772   1.93312
    A9        2.19650   0.00966   0.00000   0.03675   0.03675   2.23325
   A10        2.06809   0.00858   0.00000   0.03685   0.03685   2.10494
   A11        2.12016  -0.00617   0.00000  -0.02930  -0.02930   2.09086
   A12        2.09493  -0.00241   0.00000  -0.00755  -0.00755   2.08738
   A13        2.18742   0.00315   0.00000   0.01197   0.01197   2.19938
   A14        1.99211   0.00813   0.00000   0.03093   0.03093   2.02304
   A15        2.10366  -0.01128   0.00000  -0.04289  -0.04289   2.06077
   A16        1.93140  -0.00620   0.00000  -0.02386  -0.02408   1.90732
   A17        1.93158  -0.00620   0.00000  -0.02386  -0.02409   1.90749
   A18        1.96623  -0.00343   0.00000  -0.01253  -0.01267   1.95356
   A19        1.86510   0.00601   0.00000   0.02179   0.02148   1.88658
   A20        1.88286   0.00543   0.00000   0.02115   0.02101   1.90387
   A21        1.88284   0.00543   0.00000   0.02113   0.02099   1.90383
   A22        1.91460  -0.00095   0.00000  -0.00552  -0.00552   1.90908
    D1       -2.09767  -0.00043   0.00000  -0.00333  -0.00326  -2.10093
    D2        1.04410  -0.00043   0.00000  -0.00329  -0.00323   1.04088
    D3        2.09297   0.00044   0.00000   0.00390   0.00384   2.09681
    D4       -1.04844   0.00044   0.00000   0.00394   0.00388  -1.04456
    D5       -0.00226   0.00000   0.00000   0.00026   0.00026  -0.00200
    D6        3.13951   0.00000   0.00000   0.00030   0.00030   3.13981
    D7       -3.14143   0.00001   0.00000   0.00015   0.00015  -3.14128
    D8        0.00022   0.00001   0.00000   0.00012   0.00012   0.00034
    D9       -0.00004   0.00000   0.00000   0.00010   0.00009   0.00006
   D10       -3.14158   0.00000   0.00000   0.00007   0.00007  -3.14151
   D11        3.14143  -0.00000   0.00000  -0.00007  -0.00007   3.14136
   D12        0.00002  -0.00000   0.00000  -0.00002  -0.00002   0.00001
   D13       -0.00002  -0.00000   0.00000  -0.00003  -0.00003  -0.00005
   D14        3.14138  -0.00000   0.00000  -0.00008  -0.00009   3.14130
   D15        3.14152   0.00000   0.00000   0.00000   0.00000   3.14152
   D16       -0.00026  -0.00000   0.00000  -0.00006  -0.00006  -0.00032
   D17       -1.03403   0.00019   0.00000   0.00172   0.00164  -1.03239
   D18        1.03016  -0.00018   0.00000  -0.00136  -0.00129   1.02888
   D19        3.13972   0.00000   0.00000   0.00016   0.00016   3.13987
   D20        2.10738   0.00019   0.00000   0.00167   0.00160   2.10898
   D21       -2.11161  -0.00018   0.00000  -0.00141  -0.00134  -2.11295
   D22       -0.00206   0.00000   0.00000   0.00011   0.00011  -0.00195
         Item               Value     Threshold  Converged?
 Maximum Force            0.030783     0.000450     NO 
 RMS     Force            0.010456     0.000300     NO 
 Maximum Displacement     0.186699     0.001800     NO 
 RMS     Displacement     0.046058     0.001200     NO 
 Predicted change in Energy=-6.662969D-03
 GradGradGradGradGradGradGradGradGradGradGradGradGradGradGradGradGradGrad

                          Input orientation:                          
 ---------------------------------------------------------------------
 Center     Atomic      Atomic             Coordinates (Angstroms)
 Number     Number       Type             X           Y           Z
 ---------------------------------------------------------------------
      1          6           0        2.475903    0.291527    0.000032
      2          9           0        3.177316   -0.024793   -1.066663
      3          9           0        3.174674   -0.021190    1.069573
      4          9           0        2.268032    1.591528   -0.002400
      5          6           0        1.171789   -0.463903   -0.000222
      6          6           0       -0.005996    0.179128   -0.000387
      7          6           0       -1.253202   -0.563261   -0.000239
      8          8           0       -1.363082   -1.758501   -0.000013
      9          6           0       -2.529089    0.275660   -0.000046
     10          9           0       -2.542140    1.049294    1.070161
     11          9           0       -2.540573    1.052571   -1.067890
     12          9           0       -3.603271   -0.469344   -0.002006
     13          1           0       -0.027700    1.246817   -0.000656
     14          8           0        1.382542   -1.747709    0.000015
     15          1           0        0.536815   -2.210825    0.000056
 ---------------------------------------------------------------------
                    Distance matrix (angstroms):
                    1          2          3          4          5
     1  C    0.000000
     2  F    1.315248   0.000000
     3  F    1.315291   2.136241   0.000000
     4  F    1.316517   2.138211   2.138220   0.000000
     5  C    1.507113   2.313493   2.313440   2.329496   0.000000
     6  C    2.484443   3.363332   3.361785   2.676953   1.341889
     7  C    3.825819   4.588758   4.587420   4.128221   2.427026
     8  O    4.352060   4.975812   4.975288   4.940414   2.846324
     9  C    5.005017   5.813003   5.810776   4.974322   3.774050
    10  F    5.186535   6.199344   5.816176   4.958040   4.150754
    11  F    5.185043   5.818502   6.195624   4.954636   4.149848
    12  F    6.126605   6.878043   6.876748   6.222491   4.775064
    13  H    2.679665   3.609084   3.606720   2.321468   2.089339
    14  O    2.313855   2.706928   2.708608   3.454650   1.300990
    15  H    3.165728   3.590107   3.591193   4.177919   1.858744
                    6          7          8          9         10
     6  C    0.000000
     7  C    1.451436   0.000000
     8  O    2.365606   1.200280   0.000000
     9  C    2.524939   1.526983   2.344650   0.000000
    10  F    2.887091   2.325393   3.227873   1.320614   0.000000
    11  F    2.885575   2.325535   3.229391   1.320611   2.138054
    12  F    3.655258   2.351946   2.584642   1.307250   2.140514
    13  H    1.067909   2.185918   3.288644   2.683299   2.740087
    14  O    2.375024   2.889648   2.745646   4.403962   4.936757
    15  H    2.450821   2.432824   1.953000   3.947452   4.610149
                   11         12         13         14         15
    11  F    0.000000
    12  F    2.140482   0.000000
    13  H    2.737015   3.966096   0.000000
    14  O    4.936883   5.147092   3.309980   0.000000
    15  H    4.610920   4.491445   3.503422   0.964225   0.000000
 Stoichiometry    C5H2F6O2
 Framework group  C1[X(C5H2F6O2)]
 Deg. of freedom    39
 Full point group                 C1      NOp   1
 Largest Abelian subgroup         C1      NOp   1
 Largest concise Abelian subgroup C1      NOp   1
                         Standard orientation:                         
 ---------------------------------------------------------------------
 Center     Atomic      Atomic             Coordinates (Angstroms)
 Number     Number       Type             X           Y           Z
 ---------------------------------------------------------------------
      1          6           0       -2.482181   -0.322214    0.000020
      2          9           0       -3.184879   -0.008759   -1.066675
      3          9           0       -3.182223   -0.012352    1.069561
      4          9           0       -2.269005   -1.621355   -0.002412
      5          6           0       -1.181162    0.438534   -0.000234
      6          6           0       -0.000762   -0.199684   -0.000399
      7          6           0        1.243403    0.547791   -0.000251
      8          8           0        1.348403    1.743469   -0.000025
      9          6           0        2.522704   -0.285915   -0.000058
     10          9           0        2.538914   -1.059489    1.070149
     11          9           0        2.537359   -1.062772   -1.067902
     12          9           0        3.593836    0.463468   -0.002018
     13          1           0        0.025301   -1.267275   -0.000668
     14          8           0       -1.397154    1.721469    0.000003
     15          1           0       -0.553325    2.188034    0.000044
 ---------------------------------------------------------------------
 Rotational constants (GHZ):           1.7156175           0.3869520           0.3541351
 Standard basis: GTBas1 (6D, 7F)
 There are   199 symmetry adapted cartesian basis functions of A   symmetry.
 There are   199 symmetry adapted basis functions of A   symmetry.
   199 basis functions,   372 primitive gaussians,   199 cartesian basis functions
    51 alpha electrons       51 beta electrons
       nuclear repulsion energy       893.4381338426 Hartrees.
 NAtoms=   15 NActive=   15 NUniq=   15 SFac= 1.00D+00 NAtFMM=   60 NAOKFM=F Big=F
 Integral buffers will be    131072 words long.
 Raffenetti 1 integral format.
 Two-electron integral symmetry is turned on.
 One-electron integrals computed using PRISM.
 NBasis=   199 RedAO= T EigKep=  1.06D-03  NBF=   199
 NBsUse=   199 1.00D-06 EigRej= -1.00D+00 NBFU=   199
 Initial guess from the checkpoint file:  "/home/artemiy/opt/gaussian/scr/Gau-4301.chk"
 B after Tr=    -0.000000    0.000000    0.000000
         Rot=    1.000000    0.000008    0.000001   -0.000711 Ang=   0.08 deg.
 ExpMin= 1.61D-01 ExpMax= 7.00D+03 ExpMxC= 1.05D+03 IAcc=2 IRadAn=         4 AccDes= 0.00D+00
 Harris functional with IExCor=  205 and IRadAn=       4 diagonalized for initial guess.
 HarFok:  IExCor=  205 AccDes= 0.00D+00 IRadAn=         4 IDoV= 1 UseB2=F ITyADJ=14
 ICtDFT=  3500011 ScaDFX=  1.000000  1.000000  1.000000  1.000000
 FoFCou: FMM=F IPFlag=           0 FMFlag=      100000 FMFlg1=           0
         NFxFlg=           0 DoJE=T BraDBF=F KetDBF=T FulRan=T
         wScrn=  0.000000 ICntrl=       500 IOpCl=  0 I1Cent=   200000004 NGrid=           0
         NMat0=    1 NMatS0=      1 NMatT0=    0 NMatD0=    1 NMtDS0=    0 NMtDT0=    0
 Petite list used in FoFCou.
 Keep R1 ints in memory in canonical form, NReq=202016037.
 Requested convergence on RMS density matrix=1.00D-08 within 128 cycles.
 Requested convergence on MAX density matrix=1.00D-06.
 Requested convergence on             energy=1.00D-06.
 No special actions if energy rises.
 SCF Done:  E(RHF) =  -936.862206010     A.U. after   12 cycles
            NFock= 12  Conv=0.46D-08     -V/T= 2.0019
 Calling FoFJK, ICntrl=      2127 FMM=F ISym2X=0 I1Cent= 0 IOpClX= 0 NMat=1 NMatS=1 NMatT=0.
 ***** Axes restored to original set *****
 -------------------------------------------------------------------
 Center     Atomic                   Forces (Hartrees/Bohr)
 Number     Number              X              Y              Z
 -------------------------------------------------------------------
      1        6          -0.000075848    0.000667859    0.000004140
      2        9           0.001296509    0.001720208    0.000982035
      3        9           0.001296128    0.001709500   -0.000996741
      4        9           0.004262758   -0.000001335    0.000008182
      5        6          -0.008132871    0.011756553    0.000000419
      6        6           0.007122988   -0.004493452   -0.000004591
      7        6          -0.006087466   -0.008235582    0.000005075
      8        8           0.007594605    0.002835350   -0.000006304
      9        6          -0.000073226    0.000266448   -0.000001314
     10        9          -0.002341707    0.000897722   -0.000146098
     11        9          -0.002345581    0.000901783    0.000138186
     12        9           0.001801166    0.003059798    0.000009023
     13        1          -0.000176175    0.000572507   -0.000001549
     14        8          -0.009599990   -0.011508261    0.000006212
     15        1           0.005458710   -0.000149098    0.000003325
 -------------------------------------------------------------------
 Cartesian Forces:  Max     0.011756553 RMS     0.004098285

 GradGradGradGradGradGradGradGradGradGradGradGradGradGradGradGradGradGrad
 Berny optimization.
 Using GEDIIS/GDIIS optimizer.
 FormGI is forming the generalized inverse of G from B-inverse, IUseBI=4.
 Internal  Forces:  Max     0.010832525 RMS     0.003685580
 Search for a local minimum.
 Step number   2 out of a maximum of   68
 All quantities printed in internal units (Hartrees-Bohrs-Radians)
 Mixed Optimization -- RFO/linear search
 Update second derivatives using D2CorX and points    1    2
 DE= -5.70D-03 DEPred=-6.66D-03 R= 8.55D-01
 TightC=F SS=  1.41D+00  RLast= 1.77D-01 DXNew= 5.0454D-01 5.3148D-01
 Trust test= 8.55D-01 RLast= 1.77D-01 DXMaxT set to 5.05D-01
 ITU=  1  0
 Use linear search instead of GDIIS.
     Eigenvalues ---    0.00230   0.00376   0.00827   0.01579   0.01713
     Eigenvalues ---    0.02107   0.02632   0.02924   0.10710   0.10955
     Eigenvalues ---    0.11156   0.11307   0.15900   0.16054   0.22314
     Eigenvalues ---    0.23586   0.25000   0.25000   0.25000   0.25000
     Eigenvalues ---    0.25000   0.25000   0.25000   0.25000   0.27103
     Eigenvalues ---    0.28706   0.34446   0.36881   0.39767   0.45233
     Eigenvalues ---    0.51564   0.56917   0.57128   0.57789   0.58490
     Eigenvalues ---    0.58576   0.59985   0.69547   0.95085
 RFO step:  Lambda=-1.87144846D-03 EMin= 2.29999998D-03
 Quartic linear search produced a step of -0.11665.
 Iteration  1 RMS(Cart)=  0.04316331 RMS(Int)=  0.00063348
 Iteration  2 RMS(Cart)=  0.00089791 RMS(Int)=  0.00001548
 Iteration  3 RMS(Cart)=  0.00000012 RMS(Int)=  0.00001548
 Variable       Old X    -DE/DX   Delta X   Delta X   Delta X     New X
                                 (Linear)    (Quad)   (Total)
    R1        2.48546  -0.00052   0.00412  -0.01037  -0.00624   2.47922
    R2        2.48554  -0.00053   0.00413  -0.01039  -0.00626   2.47928
    R3        2.48786  -0.00067   0.00398  -0.01027  -0.00629   2.48157
    R4        2.84803   0.00792   0.00493   0.01185   0.01678   2.86481
    R5        2.53580  -0.00683   0.00375  -0.02006  -0.01630   2.51950
    R6        2.45851   0.01083   0.00128   0.01162   0.01291   2.47142
    R7        2.74282   0.00139  -0.00284   0.00975   0.00690   2.74972
    R8        2.01806   0.00058   0.00176  -0.00276  -0.00100   2.01705
    R9        2.26820  -0.00352   0.00366  -0.01164  -0.00798   2.26022
   R10        2.88558   0.00529   0.00487   0.00510   0.00998   2.89556
   R11        2.49560   0.00043   0.00456  -0.00994  -0.00538   2.49022
   R12        2.49559   0.00044   0.00456  -0.00992  -0.00536   2.49023
   R13        2.47035  -0.00322   0.00427  -0.01463  -0.01036   2.45999
   R14        1.82212  -0.00472   0.00682  -0.02447  -0.01766   1.80447
    A1        1.89546  -0.00269  -0.00202  -0.00635  -0.00834   1.88711
    A2        1.89673  -0.00412  -0.00274  -0.00711  -0.00989   1.88683
    A3        1.91854   0.00219   0.00260   0.00097   0.00357   1.92210
    A4        1.89669  -0.00412  -0.00274  -0.00709  -0.00988   1.88682
    A5        1.91843   0.00219   0.00260   0.00097   0.00355   1.92198
    A6        1.93727   0.00623   0.00195   0.01795   0.01986   1.95713
    A7        2.11682   0.00588  -0.00011   0.02088   0.02076   2.13758
    A8        1.93312   0.00190   0.00440  -0.00389   0.00051   1.93363
    A9        2.23325  -0.00777  -0.00429  -0.01698  -0.02127   2.21198
   A10        2.10494  -0.00722  -0.00430  -0.01834  -0.02264   2.08230
   A11        2.09086   0.00377   0.00342   0.00694   0.01036   2.10122
   A12        2.08738   0.00344   0.00088   0.01140   0.01228   2.09966
   A13        2.19938  -0.00954  -0.00140  -0.03010  -0.03149   2.16789
   A14        2.02304   0.00251  -0.00361   0.01745   0.01385   2.03688
   A15        2.06077   0.00703   0.00500   0.01264   0.01765   2.07841
   A16        1.90732   0.00342   0.00281   0.00578   0.00859   1.91591
   A17        1.90749   0.00343   0.00281   0.00581   0.00862   1.91612
   A18        1.95356   0.00091   0.00148  -0.00162  -0.00012   1.95344
   A19        1.88658  -0.00256  -0.00251  -0.00050  -0.00303   1.88355
   A20        1.90387  -0.00268  -0.00245  -0.00475  -0.00718   1.89669
   A21        1.90383  -0.00268  -0.00245  -0.00474  -0.00717   1.89666
   A22        1.90908   0.00502   0.00064   0.02578   0.02642   1.93550
    D1       -2.10093  -0.00029   0.00038  -0.00225  -0.00190  -2.10284
    D2        1.04088  -0.00029   0.00038  -0.00217  -0.00182   1.03905
    D3        2.09681   0.00030  -0.00045   0.00437   0.00395   2.10077
    D4       -1.04456   0.00030  -0.00045   0.00445   0.00403  -1.04053
    D5       -0.00200   0.00000  -0.00003   0.00105   0.00102  -0.00098
    D6        3.13981   0.00001  -0.00003   0.00113   0.00110   3.14091
    D7       -3.14128   0.00000  -0.00002   0.00009   0.00007  -3.14121
    D8        0.00034   0.00000  -0.00001   0.00008   0.00006   0.00041
    D9        0.00006  -0.00000  -0.00001  -0.00001  -0.00002   0.00004
   D10       -3.14151  -0.00000  -0.00001  -0.00002  -0.00002  -3.14153
   D11        3.14136  -0.00000   0.00001  -0.00013  -0.00012   3.14124
   D12        0.00001  -0.00000   0.00000  -0.00005  -0.00005  -0.00004
   D13       -0.00005  -0.00000   0.00000  -0.00010  -0.00009  -0.00014
   D14        3.14130  -0.00000   0.00001  -0.00010  -0.00009   3.14121
   D15        3.14152  -0.00000  -0.00000  -0.00009  -0.00009   3.14143
   D16       -0.00032  -0.00000   0.00001  -0.00009  -0.00008  -0.00040
   D17       -1.03239  -0.00045  -0.00019  -0.00250  -0.00271  -1.03509
   D18        1.02888   0.00045   0.00015   0.00366   0.00383   1.03270
   D19        3.13987   0.00000  -0.00002   0.00060   0.00058   3.14045
   D20        2.10898  -0.00045  -0.00019  -0.00251  -0.00271   2.10627
   D21       -2.11295   0.00045   0.00016   0.00365   0.00383  -2.10912
   D22       -0.00195   0.00000  -0.00001   0.00059   0.00057  -0.00137
         Item               Value     Threshold  Converged?
 Maximum Force            0.010833     0.000450     NO 
 RMS     Force            0.003686     0.000300     NO 
 Maximum Displacement     0.160927     0.001800     NO 
 RMS     Displacement     0.043309     0.001200     NO 
 Predicted change in Energy=-1.048877D-03
 GradGradGradGradGradGradGradGradGradGradGradGradGradGradGradGradGradGrad

                          Input orientation:                          
 ---------------------------------------------------------------------
 Center     Atomic      Atomic             Coordinates (Angstroms)
 Number     Number       Type             X           Y           Z
 ---------------------------------------------------------------------
      1          6           0        2.495458    0.283149    0.000128
      2          9           0        3.189813   -0.052378   -1.061235
      3          9           0        3.188129   -0.050496    1.063225
      4          9           0        2.353191    1.588609   -0.001137
      5          6           0        1.161346   -0.436839   -0.000194
      6          6           0       -0.002815    0.213018   -0.000505
      7          6           0       -1.243191   -0.547741   -0.000312
      8          8           0       -1.299303   -1.742483   -0.000022
      9          6           0       -2.545827    0.259085   -0.000165
     10          9           0       -2.591372    1.031992    1.066161
     11          9           0       -2.590564    1.034180   -1.064941
     12          9           0       -3.594920   -0.511634   -0.001377
     13          1           0       -0.025545    1.280155   -0.000911
     14          8           0        1.333544   -1.733273    0.000245
     15          1           0        0.494075   -2.188346    0.000358
 ---------------------------------------------------------------------
                    Distance matrix (angstroms):
                    1          2          3          4          5
     1  C    0.000000
     2  F    1.311944   0.000000
     3  F    1.311979   2.124461   0.000000
     4  F    1.313190   2.125226   2.125242   0.000000
     5  C    1.515994   2.321271   2.321200   2.350093   0.000000
     6  C    2.499258   3.374680   3.373883   2.728190   1.333262
     7  C    3.829867   4.585027   4.584208   4.183056   2.407093
     8  O    4.301558   4.912718   4.912267   4.943368   2.785588
     9  C    5.041343   5.841272   5.839940   5.076221   3.771929
    10  F    5.251003   6.254900   5.880002   5.088974   4.168630
    11  F    5.250337   5.881614   6.252912   5.087218   4.168262
    12  F    6.142019   6.882356   6.881554   6.308015   4.756854
    13  H    2.710992   3.638470   3.637405   2.398652   2.087290
    14  O    2.327232   2.719905   2.720506   3.474851   1.307820
    15  H    3.180224   3.599492   3.599725   4.209716   1.874308
                    6          7          8          9         10
     6  C    0.000000
     7  C    1.455090   0.000000
     8  O    2.346245   1.196059   0.000000
     9  C    2.543429   1.532263   2.357985   0.000000
    10  F    2.917040   2.334633   3.240972   1.317767   0.000000
    11  F    2.916123   2.334807   3.242108   1.317772   2.131103
    12  F    3.664470   2.352006   2.604774   1.301770   2.128269
    13  H    1.067379   2.196330   3.280061   2.719266   2.789927
    14  O    2.360912   2.836380   2.632863   4.361079   4.918113
    15  H    2.452234   2.389494   1.847972   3.902682   4.585466
                   11         12         13         14         15
    11  F    0.000000
    12  F    2.128249   0.000000
    13  H    2.787828   3.993864   0.000000
    14  O    4.918540   5.077614   3.305734   0.000000
    15  H    4.586342   4.419417   3.507208   0.954882   0.000000
 Stoichiometry    C5H2F6O2
 Framework group  C1[X(C5H2F6O2)]
 Deg. of freedom    39
 Full point group                 C1      NOp   1
 Largest Abelian subgroup         C1      NOp   1
 Largest concise Abelian subgroup C1      NOp   1
                         Standard orientation:                         
 ---------------------------------------------------------------------
 Center     Atomic      Atomic             Coordinates (Angstroms)
 Number     Number       Type             X           Y           Z
 ---------------------------------------------------------------------
      1          6           0       -2.499439   -0.315625    0.000116
      2          9           0       -3.194562    0.018309   -1.061247
      3          9           0       -3.192873    0.016430    1.063213
      4          9           0       -2.354179   -1.620755   -0.001149
      5          6           0       -1.166982    0.407421   -0.000206
      6          6           0       -0.001333   -0.239764   -0.000517
      7          6           0        1.237295    0.523837   -0.000324
      8          8           0        1.290667    1.718705   -0.000034
      9          6           0        2.541778   -0.279999   -0.000177
     10          9           0        2.589095   -1.052800    1.066149
     11          9           0        2.588292   -1.054989   -1.064953
     12          9           0        3.589100    0.493124   -0.001389
     13          1           0        0.023844   -1.306846   -0.000923
     14          8           0       -1.342152    1.703457    0.000233
     15          1           0       -0.503729    2.160454    0.000346
 ---------------------------------------------------------------------
 Rotational constants (GHZ):           1.7374616           0.3825300           0.3509598
 Standard basis: GTBas1 (6D, 7F)
 There are   199 symmetry adapted cartesian basis functions of A   symmetry.
 There are   199 symmetry adapted basis functions of A   symmetry.
   199 basis functions,   372 primitive gaussians,   199 cartesian basis functions
    51 alpha electrons       51 beta electrons
       nuclear repulsion energy       893.2510655988 Hartrees.
 NAtoms=   15 NActive=   15 NUniq=   15 SFac= 1.00D+00 NAtFMM=   60 NAOKFM=F Big=F
 Integral buffers will be    131072 words long.
 Raffenetti 1 integral format.
 Two-electron integral symmetry is turned on.
 One-electron integrals computed using PRISM.
 NBasis=   199 RedAO= T EigKep=  1.07D-03  NBF=   199
 NBsUse=   199 1.00D-06 EigRej= -1.00D+00 NBFU=   199
 Initial guess from the checkpoint file:  "/home/artemiy/opt/gaussian/scr/Gau-4301.chk"
 B after Tr=     0.000000    0.000000   -0.000000
         Rot=    1.000000    0.000028    0.000003    0.000492 Ang=   0.06 deg.
 ExpMin= 1.61D-01 ExpMax= 7.00D+03 ExpMxC= 1.05D+03 IAcc=2 IRadAn=         4 AccDes= 0.00D+00
 Harris functional with IExCor=  205 and IRadAn=       4 diagonalized for initial guess.
 HarFok:  IExCor=  205 AccDes= 0.00D+00 IRadAn=         4 IDoV= 1 UseB2=F ITyADJ=14
 ICtDFT=  3500011 ScaDFX=  1.000000  1.000000  1.000000  1.000000
 FoFCou: FMM=F IPFlag=           0 FMFlag=      100000 FMFlg1=           0
         NFxFlg=           0 DoJE=T BraDBF=F KetDBF=T FulRan=T
         wScrn=  0.000000 ICntrl=       500 IOpCl=  0 I1Cent=   200000004 NGrid=           0
         NMat0=    1 NMatS0=      1 NMatT0=    0 NMatD0=    1 NMtDS0=    0 NMtDT0=    0
 Petite list used in FoFCou.
 Keep R1 ints in memory in canonical form, NReq=202016037.
 Requested convergence on RMS density matrix=1.00D-08 within 128 cycles.
 Requested convergence on MAX density matrix=1.00D-06.
 Requested convergence on             energy=1.00D-06.
 No special actions if energy rises.
 SCF Done:  E(RHF) =  -936.862623676     A.U. after   12 cycles
            NFock= 12  Conv=0.36D-08     -V/T= 2.0018
 Calling FoFJK, ICntrl=      2127 FMM=F ISym2X=0 I1Cent= 0 IOpClX= 0 NMat=1 NMatS=1 NMatT=0.
 ***** Axes restored to original set *****
 -------------------------------------------------------------------
 Center     Atomic                   Forces (Hartrees/Bohr)
 Number     Number              X              Y              Z
 -------------------------------------------------------------------
      1        6          -0.000187903   -0.001649683    0.000007543
      2        9           0.001355928   -0.001311944   -0.003819546
      3        9           0.001343692   -0.001302274    0.003808257
      4        9          -0.002571155    0.002858900   -0.000003328
      5        6           0.001948303   -0.000507786    0.000019795
      6        6          -0.002685134    0.002537914   -0.000013476
      7        6           0.000171435    0.002425888   -0.000002061
      8        8          -0.003837069   -0.004561568   -0.000001436
      9        6           0.001227437    0.000025358   -0.000001113
     10        9           0.000710638    0.002030227    0.002684028
     11        9           0.000719898    0.002028963   -0.002676772
     12        9          -0.002834600   -0.003280693   -0.000003074
     13        1          -0.000212495    0.001734412    0.000003162
     14        8           0.008754815   -0.000015925    0.000001625
     15        1          -0.003903789   -0.001011790   -0.000003604
 -------------------------------------------------------------------
 Cartesian Forces:  Max     0.008754815 RMS     0.002369924

 GradGradGradGradGradGradGradGradGradGradGradGradGradGradGradGradGradGrad
 Berny optimization.
 Using GEDIIS/GDIIS optimizer.
 FormGI is forming the generalized inverse of G from B-inverse, IUseBI=4.
 Internal  Forces:  Max     0.008117993 RMS     0.002794762
 Search for a local minimum.
 Step number   3 out of a maximum of   68
 All quantities printed in internal units (Hartrees-Bohrs-Radians)
 Mixed Optimization -- RFO/linear search
 Update second derivatives using D2CorX and points    1    2    3
 DE= -4.18D-04 DEPred=-1.05D-03 R= 3.98D-01
 Trust test= 3.98D-01 RLast= 8.00D-02 DXMaxT set to 5.05D-01
 ITU=  0  1  0
 Use linear search instead of GDIIS.
     Eigenvalues ---    0.00230   0.00376   0.00806   0.01579   0.01689
     Eigenvalues ---    0.02106   0.02632   0.02924   0.10665   0.10699
     Eigenvalues ---    0.11124   0.11176   0.15718   0.16023   0.21684
     Eigenvalues ---    0.23979   0.25000   0.25000   0.25000   0.25000
     Eigenvalues ---    0.25000   0.25000   0.25000   0.25605   0.28031
     Eigenvalues ---    0.29287   0.36562   0.37032   0.42897   0.48741
     Eigenvalues ---    0.56771   0.56917   0.57441   0.58409   0.58575
     Eigenvalues ---    0.59872   0.66909   0.68779   0.96519
 RFO step:  Lambda=-2.12879408D-04 EMin= 2.29999670D-03
 Quartic linear search produced a step of -0.37243.
 Iteration  1 RMS(Cart)=  0.02422330 RMS(Int)=  0.00014388
 Iteration  2 RMS(Cart)=  0.00033241 RMS(Int)=  0.00000659
 Iteration  3 RMS(Cart)=  0.00000005 RMS(Int)=  0.00000659
 Variable       Old X    -DE/DX   Delta X   Delta X   Delta X     New X
                                 (Linear)    (Quad)   (Total)
    R1        2.47922   0.00414   0.00232   0.00268   0.00501   2.48422
    R2        2.47928   0.00413   0.00233   0.00266   0.00499   2.48427
    R3        2.48157   0.00312   0.00234   0.00162   0.00396   2.48553
    R4        2.86481  -0.00072  -0.00625   0.00827   0.00202   2.86683
    R5        2.51950   0.00732   0.00607   0.00181   0.00788   2.52738
    R6        2.47142   0.00166  -0.00481   0.00772   0.00291   2.47433
    R7        2.74972   0.00397  -0.00257   0.00786   0.00529   2.75501
    R8        2.01705   0.00174   0.00037   0.00290   0.00327   2.02032
    R9        2.26022   0.00474   0.00297   0.00052   0.00349   2.26372
   R10        2.89556   0.00057  -0.00372   0.00767   0.00395   2.89951
   R11        2.49022   0.00334   0.00200   0.00253   0.00454   2.49476
   R12        2.49023   0.00333   0.00200   0.00253   0.00453   2.49476
   R13        2.45999   0.00423   0.00386   0.00084   0.00470   2.46469
   R14        1.80447   0.00391   0.00658  -0.00100   0.00557   1.81004
    A1        1.88711   0.00147   0.00311   0.00052   0.00363   1.89074
    A2        1.88683   0.00179   0.00369  -0.00255   0.00115   1.88799
    A3        1.92210  -0.00055  -0.00133   0.00185   0.00053   1.92263
    A4        1.88682   0.00179   0.00368  -0.00254   0.00116   1.88798
    A5        1.92198  -0.00055  -0.00132   0.00185   0.00054   1.92252
    A6        1.95713  -0.00370  -0.00739   0.00072  -0.00666   1.95047
    A7        2.13758  -0.00353  -0.00773   0.00174  -0.00600   2.13158
    A8        1.93363  -0.00313  -0.00019  -0.00529  -0.00548   1.92814
    A9        2.21198   0.00666   0.00792   0.00356   0.01148   2.22346
   A10        2.08230   0.00812   0.00843   0.00862   0.01705   2.09935
   A11        2.10122  -0.00388  -0.00386  -0.00366  -0.00752   2.09370
   A12        2.09966  -0.00424  -0.00457  -0.00496  -0.00953   2.09013
   A13        2.16789   0.00604   0.01173  -0.00164   0.01009   2.17798
   A14        2.03688  -0.00391  -0.00516  -0.00371  -0.00886   2.02802
   A15        2.07841  -0.00214  -0.00657   0.00534  -0.00123   2.07718
   A16        1.91591  -0.00086  -0.00320   0.00301  -0.00018   1.91573
   A17        1.91612  -0.00088  -0.00321   0.00298  -0.00022   1.91590
   A18        1.95344  -0.00110   0.00005  -0.00174  -0.00170   1.95174
   A19        1.88355   0.00049   0.00113  -0.00187  -0.00072   1.88283
   A20        1.89669   0.00122   0.00267  -0.00125   0.00143   1.89812
   A21        1.89666   0.00122   0.00267  -0.00123   0.00144   1.89810
   A22        1.93550  -0.00175  -0.00984   0.00710  -0.00274   1.93276
    D1       -2.10284   0.00057   0.00071   0.00476   0.00548  -2.09736
    D2        1.03905   0.00056   0.00068   0.00464   0.00533   1.04438
    D3        2.10077  -0.00056  -0.00147   0.00181   0.00033   2.10110
    D4       -1.04053  -0.00056  -0.00150   0.00169   0.00018  -1.04035
    D5       -0.00098   0.00000  -0.00038   0.00328   0.00290   0.00192
    D6        3.14091  -0.00000  -0.00041   0.00316   0.00275  -3.13953
    D7       -3.14121  -0.00000  -0.00003  -0.00009  -0.00012  -3.14132
    D8        0.00041  -0.00001  -0.00002  -0.00011  -0.00013   0.00027
    D9        0.00004   0.00000   0.00001   0.00005   0.00006   0.00010
   D10       -3.14153   0.00000   0.00001   0.00003   0.00004  -3.14149
   D11        3.14124   0.00001   0.00005   0.00006   0.00011   3.14135
   D12       -0.00004   0.00000   0.00002  -0.00006  -0.00005  -0.00009
   D13       -0.00014  -0.00000   0.00003  -0.00015  -0.00011  -0.00025
   D14        3.14121   0.00000   0.00003   0.00001   0.00004   3.14125
   D15        3.14143   0.00000   0.00003  -0.00012  -0.00009   3.14134
   D16       -0.00040   0.00000   0.00003   0.00003   0.00006  -0.00034
   D17       -1.03509   0.00023   0.00101   0.00179   0.00281  -1.03229
   D18        1.03270  -0.00023  -0.00143   0.00312   0.00169   1.03439
   D19        3.14045  -0.00000  -0.00021   0.00245   0.00224  -3.14050
   D20        2.10627   0.00023   0.00101   0.00194   0.00295   2.10922
   D21       -2.10912  -0.00022  -0.00142   0.00327   0.00184  -2.10728
   D22       -0.00137   0.00000  -0.00021   0.00260   0.00239   0.00101
         Item               Value     Threshold  Converged?
 Maximum Force            0.008118     0.000450     NO 
 RMS     Force            0.002795     0.000300     NO 
 Maximum Displacement     0.068732     0.001800     NO 
 RMS     Displacement     0.024443     0.001200     NO 
 Predicted change in Energy=-3.606591D-04
 GradGradGradGradGradGradGradGradGradGradGradGradGradGradGradGradGradGrad

                          Input orientation:                          
 ---------------------------------------------------------------------
 Center     Atomic      Atomic             Coordinates (Angstroms)
 Number     Number       Type             X           Y           Z
 ---------------------------------------------------------------------
      1          6           0        2.491546    0.288841    0.000451
      2          9           0        3.189772   -0.032165   -1.066128
      3          9           0        3.190850   -0.035291    1.065409
      4          9           0        2.321869    1.593134    0.002454
      5          6           0        1.166824   -0.450478    0.000129
      6          6           0       -0.006257    0.191862   -0.000430
      7          6           0       -1.255747   -0.559280   -0.000382
      8          8           0       -1.334651   -1.754585   -0.000109
      9          6           0       -2.545613    0.271678   -0.000586
     10          9           0       -2.575863    1.049249    1.065862
     11          9           0       -2.577158    1.047103   -1.068560
     12          9           0       -3.608970   -0.483538    0.000801
     13          1           0       -0.029706    1.260713   -0.000917
     14          8           0        1.364676   -1.744803    0.000654
     15          1           0        0.530447   -2.215442    0.000671
 ---------------------------------------------------------------------
                    Distance matrix (angstroms):
                    1          2          3          4          5
     1  C    0.000000
     2  F    1.314593   0.000000
     3  F    1.314619   2.131540   0.000000
     4  F    1.315285   2.129958   2.129970   0.000000
     5  C    1.517064   2.324696   2.324626   2.347442   0.000000
     6  C    2.499685   3.376463   3.377737   2.717304   1.337430
     7  C    3.842072   4.601772   4.602466   4.175192   2.425013
     8  O    4.337669   4.957170   4.956961   4.957557   2.821005
     9  C    5.037188   5.841433   5.842737   5.043672   3.782022
    10  F    5.233732   6.241585   5.867811   5.041272   4.170452
    11  F    5.235408   5.867052   6.244623   5.044371   4.171599
    12  F    6.149217   6.896736   6.897236   6.283901   4.775908
    13  H    2.702082   3.629221   3.631619   2.374956   2.088028
    14  O    2.324983   2.720685   2.718648   3.472470   1.309359
    15  H    3.180778   3.602329   3.600621   4.208854   1.876186
                    6          7          8          9         10
     6  C    0.000000
     7  C    1.457888   0.000000
     8  O    2.356541   1.197907   0.000000
     9  C    2.540610   1.534355   2.360545   0.000000
    10  F    2.911179   2.338150   3.246288   1.320168   0.000000
    11  F    2.912365   2.338289   3.245746   1.320169   2.134424
    12  F    3.665475   2.354442   2.605396   1.304255   2.133331
    13  H    1.069109   2.194437   3.285561   2.703327   2.768691
    14  O    2.372789   2.876123   2.699345   4.399608   4.946639
    15  H    2.466407   2.435849   1.921192   3.955744   4.630550
                   11         12         13         14         15
    11  F    0.000000
    12  F    2.133314   0.000000
    13  H    2.770379   3.981651   0.000000
    14  O    4.947323   5.131076   3.313221   0.000000
    15  H    4.630838   4.487122   3.520999   0.957831   0.000000
 Stoichiometry    C5H2F6O2
 Framework group  C1[X(C5H2F6O2)]
 Deg. of freedom    39
 Full point group                 C1      NOp   1
 Largest Abelian subgroup         C1      NOp   1
 Largest concise Abelian subgroup C1      NOp   1
                         Standard orientation:                         
 ---------------------------------------------------------------------
 Center     Atomic      Atomic             Coordinates (Angstroms)
 Number     Number       Type             X           Y           Z
 ---------------------------------------------------------------------
      1          6           0       -2.497098   -0.320476    0.000000
      2          9           0       -3.196323   -0.002365   -1.066792
      3          9           0       -3.197871    0.001176    1.064745
      4          9           0       -2.322410   -1.624107    0.002297
      5          6           0       -1.175227    0.423929   -0.000184
      6          6           0        0.000314   -0.213898   -0.000366
      7          6           0        1.246908    0.542040   -0.000199
      8          8           0        1.321218    1.737640   -0.000145
      9          6           0        2.539958   -0.283955    0.000037
     10          9           0        2.572967   -1.061194    1.066645
     11          9           0        2.574711   -1.059463   -1.067777
     12          9           0        3.600405    0.475342    0.001502
     13          1           0        0.027870   -1.282652   -0.000637
     14          8           0       -1.378052    1.717484    0.000043
     15          1           0       -0.545637    2.191326    0.000145
 ---------------------------------------------------------------------
 Rotational constants (GHZ):           1.7196811           0.3824725           0.3503844
 Standard basis: GTBas1 (6D, 7F)
 There are   199 symmetry adapted cartesian basis functions of A   symmetry.
 There are   199 symmetry adapted basis functions of A   symmetry.
   199 basis functions,   372 primitive gaussians,   199 cartesian basis functions
    51 alpha electrons       51 beta electrons
       nuclear repulsion energy       891.4442595032 Hartrees.
 NAtoms=   15 NActive=   15 NUniq=   15 SFac= 1.00D+00 NAtFMM=   60 NAOKFM=F Big=F
 Integral buffers will be    131072 words long.
 Raffenetti 1 integral format.
 Two-electron integral symmetry is turned on.
 One-electron integrals computed using PRISM.
 NBasis=   199 RedAO= T EigKep=  1.08D-03  NBF=   199
 NBsUse=   199 1.00D-06 EigRej= -1.00D+00 NBFU=   199
 Initial guess from the checkpoint file:  "/home/artemiy/opt/gaussian/scr/Gau-4301.chk"
 B after Tr=    -0.000000    0.000000    0.000000
         Rot=    1.000000    0.000120    0.000114   -0.000419 Ang=   0.05 deg.
 ExpMin= 1.61D-01 ExpMax= 7.00D+03 ExpMxC= 1.05D+03 IAcc=2 IRadAn=         4 AccDes= 0.00D+00
 Harris functional with IExCor=  205 and IRadAn=       4 diagonalized for initial guess.
 HarFok:  IExCor=  205 AccDes= 0.00D+00 IRadAn=         4 IDoV= 1 UseB2=F ITyADJ=14
 ICtDFT=  3500011 ScaDFX=  1.000000  1.000000  1.000000  1.000000
 FoFCou: FMM=F IPFlag=           0 FMFlag=      100000 FMFlg1=           0
         NFxFlg=           0 DoJE=T BraDBF=F KetDBF=T FulRan=T
         wScrn=  0.000000 ICntrl=       500 IOpCl=  0 I1Cent=   200000004 NGrid=           0
         NMat0=    1 NMatS0=      1 NMatT0=    0 NMatD0=    1 NMtDS0=    0 NMtDT0=    0
 Petite list used in FoFCou.
 Keep R1 ints in memory in canonical form, NReq=202016037.
 Requested convergence on RMS density matrix=1.00D-08 within 128 cycles.
 Requested convergence on MAX density matrix=1.00D-06.
 Requested convergence on             energy=1.00D-06.
 No special actions if energy rises.
 SCF Done:  E(RHF) =  -936.862939224     A.U. after   11 cycles
            NFock= 11  Conv=0.46D-08     -V/T= 2.0019
 Calling FoFJK, ICntrl=      2127 FMM=F ISym2X=0 I1Cent= 0 IOpClX= 0 NMat=1 NMatS=1 NMatT=0.
 ***** Axes restored to original set *****
 -------------------------------------------------------------------
 Center     Atomic                   Forces (Hartrees/Bohr)
 Number     Number              X              Y              Z
 -------------------------------------------------------------------
      1        6          -0.000502212   -0.000466648    0.000032661
      2        9           0.000158246   -0.000409667   -0.000432302
      3        9           0.000141544   -0.000388378    0.000398441
      4        9          -0.000659051    0.000714316   -0.000010038
      5        6          -0.001036831    0.002027625    0.000024069
      6        6           0.001145349   -0.000129568   -0.000014898
      7        6          -0.000105444   -0.001527069   -0.000013973
      8        8           0.000349633    0.000949816    0.000003295
      9        6           0.000515789    0.000038408    0.000001736
     10        9           0.000332394    0.000319291    0.000410591
     11        9           0.000356824    0.000303982   -0.000402828
     12        9          -0.000642155   -0.000805838    0.000001601
     13        1          -0.000000258    0.000286955    0.000015550
     14        8           0.000776793   -0.001310682   -0.000003066
     15        1          -0.000830620    0.000397458   -0.000010838
 -------------------------------------------------------------------
 Cartesian Forces:  Max     0.002027625 RMS     0.000620979

 GradGradGradGradGradGradGradGradGradGradGradGradGradGradGradGradGradGrad
 Berny optimization.
 Using GEDIIS/GDIIS optimizer.
 FormGI is forming the generalized inverse of G from B-inverse, IUseBI=4.
 Internal  Forces:  Max     0.001983134 RMS     0.000605096
 Search for a local minimum.
 Step number   4 out of a maximum of   68
 All quantities printed in internal units (Hartrees-Bohrs-Radians)
 Mixed Optimization -- En-DIIS/RFO-DIIS
 Update second derivatives using D2CorX and points    1    2    3    4
 DE= -3.16D-04 DEPred=-3.61D-04 R= 8.75D-01
 TightC=F SS=  1.41D+00  RLast= 3.61D-02 DXNew= 8.4853D-01 1.0828D-01
 Trust test= 8.75D-01 RLast= 3.61D-02 DXMaxT set to 5.05D-01
 ITU=  1  0  1  0
 Use linear search instead of GDIIS.
     Eigenvalues ---    0.00230   0.00376   0.00811   0.01579   0.01702
     Eigenvalues ---    0.02107   0.02632   0.02924   0.10681   0.10782
     Eigenvalues ---    0.11129   0.11184   0.15995   0.16401   0.23206
     Eigenvalues ---    0.23821   0.24766   0.25000   0.25000   0.25000
     Eigenvalues ---    0.25000   0.25000   0.25000   0.26202   0.28343
     Eigenvalues ---    0.32306   0.36341   0.37476   0.43130   0.48073
     Eigenvalues ---    0.56597   0.56918   0.57765   0.58417   0.58575
     Eigenvalues ---    0.60087   0.64139   0.73068   0.99142
 RFO step:  Lambda=-5.15569940D-05 EMin= 2.29937235D-03
 Quartic linear search produced a step of -0.07322.
 Iteration  1 RMS(Cart)=  0.00630111 RMS(Int)=  0.00001708
 Iteration  2 RMS(Cart)=  0.00001850 RMS(Int)=  0.00000068
 Iteration  3 RMS(Cart)=  0.00000000 RMS(Int)=  0.00000068
 Variable       Old X    -DE/DX   Delta X   Delta X   Delta X     New X
                                 (Linear)    (Quad)   (Total)
    R1        2.48422   0.00053  -0.00037   0.00172   0.00135   2.48557
    R2        2.48427   0.00049  -0.00037   0.00166   0.00129   2.48556
    R3        2.48553   0.00079  -0.00029   0.00189   0.00160   2.48713
    R4        2.86683  -0.00102  -0.00015  -0.00255  -0.00269   2.86414
    R5        2.52738  -0.00198  -0.00058  -0.00173  -0.00231   2.52507
    R6        2.47433   0.00089  -0.00021   0.00185   0.00164   2.47597
    R7        2.75501  -0.00032  -0.00039   0.00046   0.00008   2.75509
    R8        2.02032   0.00029  -0.00024   0.00131   0.00107   2.02139
    R9        2.26372  -0.00097  -0.00026  -0.00024  -0.00049   2.26323
   R10        2.89951  -0.00055  -0.00029  -0.00093  -0.00122   2.89829
   R11        2.49476   0.00051  -0.00033   0.00161   0.00128   2.49604
   R12        2.49476   0.00050  -0.00033   0.00159   0.00125   2.49601
   R13        2.46469   0.00099  -0.00034   0.00225   0.00191   2.46659
   R14        1.81004   0.00053  -0.00041   0.00187   0.00147   1.81150
    A1        1.89074   0.00019  -0.00027   0.00116   0.00090   1.89164
    A2        1.88799   0.00057  -0.00008   0.00225   0.00216   1.89015
    A3        1.92263  -0.00025  -0.00004  -0.00084  -0.00087   1.92176
    A4        1.88798   0.00057  -0.00008   0.00230   0.00221   1.89019
    A5        1.92252  -0.00022  -0.00004  -0.00072  -0.00076   1.92176
    A6        1.95047  -0.00080   0.00049  -0.00392  -0.00343   1.94704
    A7        2.13158   0.00038   0.00044   0.00019   0.00063   2.13221
    A8        1.92814   0.00073   0.00040   0.00135   0.00175   1.92989
    A9        2.22346  -0.00111  -0.00084  -0.00154  -0.00238   2.22108
   A10        2.09935  -0.00174  -0.00125  -0.00343  -0.00468   2.09467
   A11        2.09370   0.00087   0.00055   0.00185   0.00240   2.09611
   A12        2.09013   0.00088   0.00070   0.00158   0.00228   2.09241
   A13        2.17798  -0.00014  -0.00074   0.00142   0.00068   2.17867
   A14        2.02802  -0.00037   0.00065  -0.00292  -0.00227   2.02575
   A15        2.07718   0.00051   0.00009   0.00149   0.00158   2.07877
   A16        1.91573  -0.00040   0.00001  -0.00156  -0.00155   1.91419
   A17        1.91590  -0.00045   0.00002  -0.00176  -0.00175   1.91415
   A18        1.95174  -0.00024   0.00012  -0.00083  -0.00070   1.95104
   A19        1.88283   0.00022   0.00005  -0.00006  -0.00001   1.88281
   A20        1.89812   0.00044  -0.00010   0.00214   0.00203   1.90015
   A21        1.89810   0.00046  -0.00011   0.00216   0.00206   1.90016
   A22        1.93276  -0.00137   0.00020  -0.00781  -0.00761   1.92515
    D1       -2.09736  -0.00003  -0.00040  -0.00329  -0.00369  -2.10104
    D2        1.04438  -0.00004  -0.00039  -0.00385  -0.00424   1.04014
    D3        2.10110   0.00003  -0.00002  -0.00375  -0.00377   2.09732
    D4       -1.04035   0.00002  -0.00001  -0.00432  -0.00433  -1.04468
    D5        0.00192  -0.00001  -0.00021  -0.00359  -0.00380  -0.00189
    D6       -3.13953  -0.00002  -0.00020  -0.00416  -0.00436   3.13930
    D7       -3.14132  -0.00001   0.00001  -0.00056  -0.00055   3.14131
    D8        0.00027  -0.00002   0.00001  -0.00062  -0.00061  -0.00034
    D9        0.00010  -0.00000  -0.00000   0.00011   0.00010   0.00020
   D10       -3.14149  -0.00000  -0.00000   0.00005   0.00004  -3.14145
   D11        3.14135   0.00001  -0.00001   0.00057   0.00056  -3.14128
   D12       -0.00009   0.00000   0.00000  -0.00004  -0.00003  -0.00012
   D13       -0.00025   0.00000   0.00001   0.00005   0.00006  -0.00019
   D14        3.14125   0.00001  -0.00000   0.00038   0.00038  -3.14155
   D15        3.14134   0.00000   0.00001   0.00011   0.00011   3.14146
   D16       -0.00034   0.00001  -0.00000   0.00044   0.00044   0.00010
[...]
     7  C   10.625803   0.165934  -2.302396  -0.078433  -0.078106  -0.050613
     8  O    0.165934   8.199411   0.063069  -0.003057  -0.003054   0.020340
     9  C   -2.302396   0.063069   7.307989   0.244623   0.244256   0.254592
    10  F   -0.078433  -0.003057   0.244623   9.054865   0.018875   0.012109
    11  F   -0.078106  -0.003054   0.244256   0.018875   9.054857   0.012126
    12  F   -0.050613   0.020340   0.254592   0.012109   0.012126   9.042660
    13  H   -0.146704   0.005825   0.073856  -0.005581  -0.005587  -0.000905
    14  O   -0.022309   0.005669   0.001865  -0.000142  -0.000141   0.000117
    15  H   -0.085704   0.047258  -0.004363   0.000785   0.000785   0.000195
              13         14         15
     1  C    0.018452  -0.193681   0.043282
     2  F   -0.000996   0.020044   0.003071
     3  F   -0.000993   0.020045   0.003070
     4  F   -0.009327   0.007243  -0.000229
     5  C   -0.205022   0.238165   0.005974
     6  C    0.573327   0.028469  -0.007159
     7  C   -0.146704  -0.022309  -0.085704
     8  O    0.005825   0.005669   0.047258
     9  C    0.073856   0.001865  -0.004363
    10  F   -0.005581  -0.000142   0.000785
    11  F   -0.005587  -0.000141   0.000785
    12  F   -0.000905   0.000117   0.000195
    13  H    0.495096   0.003004   0.001017
    14  O    0.003004   8.061752   0.264392
    15  H    0.001017   0.264392   0.339092
 Mulliken charges:
               1
     1  C    0.730036
     2  F   -0.243521
     3  F   -0.243523
     4  F   -0.300588
     5  C    0.055510
     6  C    0.225748
     7  C    0.090686
     8  O   -0.472213
     9  C    0.768899
    10  F   -0.244292
    11  F   -0.244316
    12  F   -0.281008
    13  H    0.204536
    14  O   -0.434491
    15  H    0.388537
 Sum of Mulliken charges =  -0.00000
 Mulliken charges with hydrogens summed into heavy atoms:
               1
     1  C    0.730036
     2  F   -0.243521
     3  F   -0.243523
     4  F   -0.300588
     5  C    0.055510
     6  C    0.430284
     7  C    0.090686
     8  O   -0.472213
     9  C    0.768899
    10  F   -0.244292
    11  F   -0.244316
    12  F   -0.281008
    14  O   -0.045954
 Electronic spatial extent (au):  <R**2>=           2819.2536
 Charge=             -0.0000 electrons
 Dipole moment (field-independent basis, Debye):
    X=             -0.0931    Y=             -0.8793    Z=             -0.0004  Tot=              0.8842
 Quadrupole moment (field-independent basis, Debye-Ang):
   XX=            -80.7210   YY=            -72.9618   ZZ=            -71.0075
   XY=             -0.9329   XZ=              0.0007   YZ=             -0.0001
 Traceless Quadrupole moment (field-independent basis, Debye-Ang):
   XX=             -5.8242   YY=              1.9350   ZZ=              3.8893
   XY=             -0.9329   XZ=              0.0007   YZ=             -0.0001
 Octapole moment (field-independent basis, Debye-Ang**2):
  XXX=              0.0431  YYY=            -12.3253  ZZZ=             -0.0022  XYY=             -3.7691
  XXY=            -10.5594  XXZ=             -0.0007  XZZ=              1.6474  YZZ=             -1.3413
  YYZ=              0.0010  XYZ=              0.0009
 Hexadecapole moment (field-independent basis, Debye-Ang**3):
 XXXX=          -2338.5648 YYYY=           -447.5262 ZZZZ=           -194.4850 XXXY=             -3.3811
 XXXZ=              0.1217 YYYX=            -12.8585 YYYZ=             -0.0181 ZZZX=              0.1152
 ZZZY=             -0.0220 XXYY=           -479.1751 XXZZ=           -422.0612 YYZZ=           -109.2463
 XXYZ=             -0.0046 YYXZ=              0.0415 ZZXY=              5.9191
 N-N= 8.828282911987D+02 E-N=-3.991065739802D+03  KE= 9.359707649854D+02
 1\1\GINC-ARTEMIY-VIRTUALBOX\SP\RMP2\GTMP2large\C5H2F6O2\ARTEMIY\26-Nov
 -2021\0\\#N Geom=AllCheck Guess=TCheck SCRF=Check MP2=FrzG3/GTMP2Large
 \\Title Card Required\\0,1\C,0,2.5009936057,0.2796822645,0.0001834807\
 F,0,3.2138183325,-0.0552488239,-1.0884629751\F,0,3.2135053176,-0.05484
 72174,1.0891576906\F,0,2.3321984542,1.6152209282,-0.0000875613\C,0,1.1
 751497981,-0.439841815,0.000125057\C,0,-0.0144251346,0.2188000345,-0.0
 00193071\C,0,-1.2343843094,-0.5477991011,-0.0001928028\O,0,-1.29405470
 83,-1.7879484004,0.0000233695\C,0,-2.5371376251,0.2545422326,-0.000367
 5748\F,0,-2.5790083728,1.0483577456,1.0905993971\F,0,-2.5783571145,1.0
 490399402,-1.0908655558\F,0,-3.6098343607,-0.5360808326,-0.0009372054\
 H,0,-0.0386841585,1.2995656601,-0.0004210453\O,0,1.3420337426,-1.75649
 79764,0.000412677\H,0,0.4302048835,-2.1599470597,0.0003424\\Version=ES
 64L-G16RevA.03\State=1-A\HF=-937.1791804\MP2=-939.8991532\RMSD=4.966e-
 09\PG=C01 [X(C5H2F6O2)]\\@


 HONESTY IN A LAWYER IS LIKE A HEN'S HIND LEGS.
  -- MAGNUS OLESON, LAKE WOBEGON PATRIARCH, C.1875
 Diagonal vibrational polarizability:
        0.0000000       0.0000000       0.0000000
 
 Temperature=              298.150000 Pressure=                      1.000000
 E(ZPE)=                     0.076520 E(Thermal)=                    0.088375
 E(QCISD(T))=             -938.950923 E(Empiric)=                   -0.352602
 DE(MP2)=                   -1.036786
 G3MP2(0 K)=              -940.263791 G3MP2 Energy=               -940.251936
 G3MP2 Enthalpy=          -940.250992 G3MP2 Free Energy=          -940.304311
 1\1\GINC-ARTEMIY-VIRTUALBOX\Mixed\G3MP2\G3MP2\C5H2F6O2\ARTEMIY\26-Nov-
 2021\0\\# g3mp2 geom=gic\\Title Card Required\\0,1\C,0,2.5009936057,0.
 2796822645,0.0001834807\F,0,3.2138183325,-0.0552488239,-1.0884629751\F
 ,0,3.2135053176,-0.0548472174,1.0891576906\F,0,2.3321984542,1.61522092
 82,-0.0000875613\C,0,1.1751497981,-0.439841815,0.000125057\C,0,-0.0144
 251346,0.2188000345,-0.000193071\C,0,-1.2343843094,-0.5477991011,-0.00
 01928028\O,0,-1.2940547083,-1.7879484004,0.0000233695\C,0,-2.537137625
 1,0.2545422326,-0.0003675748\F,0,-2.5790083728,1.0483577456,1.09059939
 71\F,0,-2.5783571145,1.0490399402,-1.0908655558\F,0,-3.6098343607,-0.5
 360808326,-0.0009372054\H,0,-0.0386841585,1.2995656601,-0.0004210453\O
 ,0,1.3420337426,-1.7564979764,0.000412677\H,0,0.4302048835,-2.15994705
 97,0.0003424\\Version=ES64L-G16RevA.03\State=1-A\MP2/G3Bas1=-938.86236
 74\QCISD(T)/G3Bas1=-938.950923\MP2/GTMP2Large=-939.8991532\G3MP2=-940.
 2637909\FreqCoord=4.7062745622,0.5444741569,0.0003754219,6.0265442204,
 -0.0679973421,-2.0137511365,6.0256105904,-0.0667612604,2.0154955384,4.
 3840130447,3.010503995,-0.0004531198,2.2033050793,-0.8470718235,0.0002
 980819,-0.0105260579,0.3677296375,-0.0004127012,-2.3679721852,-1.05877
 84446,-0.0004444656,-2.5122929659,-3.3169255394,0.0001010925,-4.805190
 5008,0.5091256354,-0.0006572898,-4.8617289953,1.9761483243,2.017274766
 5,-4.8606733685,1.9777334319,-2.017467445,-6.8152462833,-0.9196588454,
 -0.0017841146,-0.0581956817,2.3879339873,-0.0009823692,2.5700349582,-3
 .2965067316,0.0006586692,0.9845700726,-4.1724929505,0.0004570289\PG=C0
 1 [X(C5H2F6O2)]\NImag=0\\0.74449053,0.01924530,0.73469645,-0.00000078,
 -0.00000531,0.67799952,-0.20327506,0.02466644,0.13702563,0.20740053,0.
 02868467,-0.10362929,-0.04337640,-0.06018911,0.11919395,0.13349454,-0.
 04030537,-0.26200230,-0.18495255,0.08558564,0.37230678,-0.20315250,0.0
 2456438,-0.13701426,0.02747636,-0.00207846,0.01309114,0.20723461,0.028
 57943,-0.10357428,0.04328719,-0.00208448,0.01583962,-0.00466278,-0.060
 03658,0.11908121,-0.13348451,0.04021693,-0.26217256,-0.01303426,0.0045
 9642,-0.09134066,0.18491549,-0.08545522,0.37257766,-0.10345989,0.00765
 037,-0.00000423,0.00010309,0.04538000,0.01820738,0.00012082,0.04534374
 ,-0.01823120,0.10382336,0.00091159,-0.37285279,0.00008905,0.02763553,-
 0.04218676,-0.03413623,0.02760912,-0.04213137,0.03417079,-0.05612552,0
 .50730147,-0.00000257,0.00008903,-0.08866659,0.01822638,-0.05569055,-0
 .00759739,-0.01823948,0.05573255,-0.00766964,0.00001838,-0.00014030,0.
 09445197,-0.24063707,-0.07452201,-0.00000348,-0.02455810,-0.00750884,0
 .01649575,-0.02453206,-0.00751585,-0.01649824,0.01217934,0.01882517,-0
 .00000569,0.93240652,-0.07638869,-0.11255771,-0.00000168,0.01514351,0.
 00675771,-0.01147028,0.01511036,0.00676326,0.01146335,-0.02956292,-0.0
 4792693,0.00001053,-0.10251596,0.82809643,-0.00000679,-0.00000328,-0.0
 8221796,0.04817892,0.00798452,-0.01530136,-0.04819740,-0.00800364,-0.0
 1533360,0.00000976,0.00001986,0.00840078,0.00015067,-0.00012349,0.2385
 2070,0.00659181,0.02671908,-0.00000608,-0.01024333,-0.00240866,0.00535
 011,-0.01024259,-0.00241227,-0.00535403,-0.00635451,-0.00657620,0.0000
 0018,-0.46265552,0.10466728,-0.00010088,0.80548193,-0.00808473,0.01917
 274,-0.00000386,-0.00597030,-0.00145878,0.00400806,-0.00596674,-0.0014
 6135,-0.00400876,0.00077287,-0.00068013,0.00000006,0.16644349,-0.23597
 536,0.00006635,-0.10899763,0.86175948,0.00000092,0.00000224,0.00925505
 ,-0.00233057,-0.00018113,0.00174175,0.00233009,0.00018203,0.00174322,-
 0.00000127,-0.00000141,0.00055220,-0.00011392,0.00006093,-0.07351910,0
 .00013932,-0.00020583,0.12391840,-0.01899216,-0.00251343,-0.00000631,0
 .00443762,0.00012614,-0.00128163,0.00443639,0.00012690,0.00128316,0.00
 381437,0.00372558,-0.00000003,-0.06266122,0.02560002,-0.00001210,-0.22
 975119,-0.06820557,-0.00000691,0.66043345,-0.01177327,-0.01074045,0.00
 000390,0.00594991,0.00068919,-0.00299287,0.00595086,0.00069172,0.00299
 503,0.00029636,0.00298651,-0.00000050,-0.00816737,0.07893175,-0.000012
 66,-0.01176910,-0.17155215,0.00001430,0.02697415,1.17124099,-0.0000020
 5,0.00000537,0.01328165,-0.00349901,-0.00068712,0.00039245,0.00349757,
 0.00068739,0.00039262,0.00000052,-0.00000050,0.00005379,-0.00000928,-0
 .00001309,0.00470704,-0.00001169,0.00000723,-0.09082795,0.00001834,-0.
 00019516,0.26992143,0.00515587,0.00106815,0.00000159,-0.00124582,-0.00
 030919,0.00051627,-0.00124551,-0.00030931,-0.00051686,-0.00161091,-0.0
 0143461,0.00000005,0.00266405,0.00948303,0.00000011,0.01433638,-0.0522
 2580,0.00001165,-0.13908684,-0.05312564,0.00000769,0.13865070,0.011670
 26,0.00295690,0.00000185,-0.00400217,0.00015538,0.00185722,-0.00400151
 ,0.00015392,-0.00185863,-0.00197171,-0.00068698,-0.00000041,0.02542915
 ,-0.04956742,0.00001076,-0.06716170,-0.04168544,0.00000677,-0.01292923
 ,-0.88004486,0.00018933,0.06148093,0.98643182,-0.00000226,-0.00000115,
 -0.00144037,0.00018257,0.00011205,0.00020635,-0.00018079,-0.00011206,0
 .00020721,0.00000028,0.00000006,-0.00009209,-0.00000592,0.00001274,-0.
 00292788,0.00001475,0.00000871,0.02364179,-0.00000169,0.00018920,-0.08
 013754,-0.00000401,-0.00021788,0.03574694,-0.00743881,-0.00242281,-0.0
 0000159,0.00238953,0.00025368,-0.00107358,0.00238895,0.00025429,0.0010
 7451,0.00162486,0.00141723,-0.00000005,-0.00897414,0.00701220,-0.00000
 283,-0.00852519,0.01290386,0.00000206,-0.23316656,0.06403192,-0.000015
 87,0.01734552,-0.00888729,-0.00000002,0.77650548,0.00200552,0.00505989
 ,-0.00000153,-0.00141202,-0.00072727,0.00073704,-0.00141240,-0.0007277
 5,-0.00073775,-0.00030900,-0.00198986,0.00000046,-0.00531416,-0.007364
 94,0.00000256,-0.02028238,0.01953085,-0.00000158,0.06770365,-0.1115049
 8,0.00000562,0.02513094,-0.04259486,0.00001008,0.00537627,0.72546374,0
 .00000004,-0.00000131,-0.00035205,0.00090509,0.00001563,-0.00087413,-0
 .00090488,-0.00001577,-0.00087486,-0.00000004,0.00000067,-0.00048706,-
 0.00000065,0.00000177,0.00235496,-0.00000558,0.00000028,0.01493271,-0.
 00000079,-0.00000468,-0.08656955,-0.00001337,0.00002140,0.01899849,0.0
 0002620,0.00000212,0.64340059,0.00234468,0.00095842,0.00046017,-0.0009
 0980,-0.00011688,0.00039152,-0.00062630,-0.00008472,-0.00030292,-0.000
 46801,-0.00053058,0.00001978,0.00294588,-0.00302758,0.00018747,-0.0051
 0049,-0.00094425,-0.00145346,0.01432339,0.01881899,0.02858453,-0.00611
 550,0.00747554,-0.00320089,-0.10650965,0.02626911,0.03166662,0.0865659
 0,-0.00138981,-0.00175505,-0.00106284,0.00072195,0.00029242,-0.0001726
 1,0.00043257,0.00022572,0.00033866,0.00025530,0.00088298,0.00012693,-0
 .00057469,0.00263090,0.00086179,0.00493243,-0.00210028,0.00473865,-0.0
 1058063,-0.01203455,-0.03823110,0.00842660,-0.00778599,0.00442878,0.03
 281312,-0.20219204,-0.13987580,-0.00116285,0.23092282,-0.00097249,-0.0
 0098082,-0.00112969,0.00039681,0.00017662,0.00006352,0.00042680,0.0001
 0242,0.00048237,0.00021146,0.00048149,0.00022335,-0.00025526,0.0013997
 4,0.00025298,0.00269931,-0.00024435,0.00307971,-0.00904789,-0.01274095
 ,-0.01619997,0.00715791,-0.00780437,0.00205894,0.02973802,-0.13484970,
 -0.25355876,-0.01136287,0.19819972,0.36327236,0.00234456,0.00095709,-0
 .00045846,-0.00062644,-0.00008445,0.00030262,-0.00090928,-0.00011696,-
 0.00039184,-0.00046811,-0.00053010,-0.00001977,0.00294531,-0.00302339,
 -0.00018684,-0.00510015,-0.00094838,0.00144535,0.01433856,0.01882725,-
 0.02855027,-0.00611842,0.00747870,0.00319409,-0.10648413,0.02621247,-0
 .03155527,0.01688890,-0.00488824,0.00276843,0.08656890,-0.00139069,-0.
 00175589,0.00106295,0.00043281,0.00022578,-0.00033843,0.00072208,0.000
 29275,0.00017279,0.00025531,0.00088373,-0.00012727,-0.00057618,0.00263
 282,-0.00086274,0.00493582,-0.00210028,-0.00473587,-0.01062649,-0.0120
 6535,0.03822222,0.00844388,-0.00780019,-0.00442318,0.03276897,-0.20239
 861,0.13992497,-0.00488007,0.02899969,-0.01268230,-0.00106128,0.231233
 57,0.00097186,0.00098048,-0.00112845,-0.00042665,-0.00010228,0.0004816
 8,-0.00039626,-0.00017665,0.00006364,-0.00021127,-0.00048168,0.0002233
 9,0.00025538,-0.00139747,0.00025338,-0.00269686,0.00024284,0.00307337,
 0.00906330,0.01275296,-0.01616346,-0.00716033,0.00780116,0.00204850,-0
 .02963511,0.13489912,-0.25336863,-0.00271665,0.01277437,-0.09021429,0.
 01121487,-0.19830278,0.36297195,0.00355985,0.00216224,-0.00000045,-0.0
 0157348,-0.00019440,0.00085018,-0.00157333,-0.00019499,-0.00085067,-0.
 00072871,-0.00068511,0.00000009,-0.00035285,-0.00741356,0.00000206,-0.
 00935779,0.01033129,-0.00000107,-0.04436059,-0.04473644,-0.00002754,0.
 00539173,0.00389319,0.00000368,-0.33019259,-0.12284981,-0.00011954,-0.
 00220791,-0.02938891,-0.02201214,-0.00224558,-0.02942848,0.02199164,0.
 38344865,0.00028463,-0.00054390,0.00000004,-0.00007420,0.00011086,0.00
 005535,-0.00007411,0.00011079,-0.00005529,-0.00007124,0.00028875,-0.00
 000007,0.00073988,-0.00052775,-0.00000020,0.00064284,-0.00028634,0.000
 00019,0.00572263,-0.00176998,0.00000251,0.00746440,0.00743416,0.000001
 55,-0.13860761,-0.17744695,-0.00007121,-0.04592731,-0.03862703,-0.0310
 5532,-0.04597905,-0.03868937,0.03100902,0.21568569,0.24860914,0.000001
 15,0.00000067,-0.00024182,-0.00005030,0.00001086,0.00011056,0.00004932
 ,-0.00001094,0.00011010,-0.00000022,-0.00000023,0.00007573,0.00000007,
 -0.00000265,-0.00009632,-0.00000261,0.00000347,0.00009218,-0.00001568,
 -0.00001091,0.00970841,0.00000227,-0.00000095,-0.00058260,-0.00011385,
 -0.00006667,-0.08833249,-0.04143766,-0.04143987,-0.00701097,0.04140361
 ,0.04140283,-0.00692054,0.00016419,0.00011339,0.09360035,-0.00092454,0
 .00366564,-0.00000010,0.00037859,-0.00056371,-0.00045806,0.00037912,-0
 .00056326,0.00045882,-0.00254139,-0.00255183,0.00000052,0.00837028,0.0
 3542879,-0.00000658,-0.07175702,0.00580670,-0.00000882,0.01182299,-0.0
 3006283,0.00000860,-0.00806549,-0.00549073,-0.00000032,-0.00076729,-0.
 00264256,0.00000231,-0.00053862,0.00100311,0.00062174,-0.00054132,0.00
 100511,-0.00062434,0.00069945,0.00058289,0.,0.07155041,0.00068014,-0.0
 0141086,-0.00000102,-0.00010265,0.00012463,0.00011900,-0.00010365,0.00
 012441,-0.00011942,-0.00431867,0.00045595,-0.00000103,-0.00064049,-0.0
 1206674,0.00000219,0.00816018,-0.39900440,0.00010063,0.00440452,-0.008
 55772,0.00000196,-0.00259358,-0.00093630,0.00000121,-0.00120079,-0.001
 56536,0.00000120,0.00107105,0.00061913,0.00007680,0.00107544,0.0006203
 5,-0.00007663,0.00014755,0.00033328,-0.00000003,-0.00742665,0.41860644
 ,0.00000059,0.00000031,-0.00459009,0.00174248,0.00017759,-0.00066194,-
 0.00174241,-0.00017847,-0.00066261,0.00000073,-0.00000079,-0.00076995,
 0.00000218,0.00000825,-0.00047441,-0.00001035,0.00010381,-0.03376347,0
 .00000205,-0.00000346,-0.00202741,-0.00000156,-0.00000026,0.00429317,0
 .00000054,-0.00000047,0.00277756,-0.00029375,-0.00090038,-0.00127509,0
 .00029244,0.00090059,-0.00127572,-0.00000015,0.00000015,-0.00039814,0.
 00001017,-0.00010836,0.02725079,0.01151147,-0.03508986,0.00000903,0.00
 075816,-0.00114922,-0.00109068,0.00075729,-0.00114415,0.00108948,-0.00
 696139,-0.01391008,0.00000281,-0.16136741,0.02751594,-0.00002239,0.010
 62127,0.04990715,-0.00000958,0.00174361,-0.00898644,0.00000245,-0.0200
 4925,0.00855271,-0.00000416,0.00422419,-0.00084266,0.00000016,-0.00114
 554,0.00106424,0.00074288,-0.00114545,0.00106457,-0.00074257,-0.000728
 43,0.00014390,-0.00000017,-0.00675580,0.00124737,-0.00000261,0.6075758
 5,0.00377202,-0.04627679,0.00000564,-0.00125321,0.00363681,0.00190914,
 -0.00125365,0.00363585,-0.00191147,-0.00661053,-0.00310399,0.00000032,
 0.04638853,-0.42003083,0.00006216,0.07120799,-0.04775290,0.00002130,-0
 .03884074,-0.04413714,0.00000388,-0.00501710,0.03880267,-0.00000940,-0
 .00740664,-0.00078549,0.00000031,0.00257549,-0.00037779,-0.00028773,0.
 00257506,-0.00037790,0.00028599,0.00379570,0.00109294,0.00000142,0.002
 87398,0.00227851,0.00000170,0.13685772,0.66893445,0.00000284,-0.000000
 22,-0.00157938,-0.00141586,0.00124382,0.00251086,0.00141619,-0.0012420
 4,0.00251273,-0.00000054,-0.00000143,0.00140835,-0.00002071,0.00004844
 ,-0.06588435,-0.00001455,0.00002206,0.01807981,0.00000693,0.00000228,-
 0.00785567,-0.00000285,-0.00000334,0.00463198,0.00000195,-0.00000022,-
 0.00028352,-0.00034691,0.00001827,0.00020462,0.00034618,-0.00001809,0.
 00020409,-0.00000053,0.00000004,0.00008335,-0.00000401,0.00000383,0.01
 252006,0.00008857,-0.00005673,0.05213447,0.00188127,0.00289100,-0.0000
 0070,-0.00051187,0.00015845,0.00015698,-0.00051197,0.00015820,-0.00015
 690,0.00092708,0.00221982,-0.00000061,0.02422698,-0.01802903,0.0000068
 3,-0.01794362,0.00517803,-0.00000378,0.01266819,0.02777165,-0.00000398
 ,-0.00000651,-0.02153613,0.00000469,-0.00242017,0.00236703,-0.00000030
 ,0.00055307,-0.00166419,-0.00111271,0.00055265,-0.00166535,0.00111300,
 0.00022156,-0.00053334,-0.00000012,-0.00130940,-0.00039978,-0.00000035
 ,-0.43903855,-0.20966461,-0.00005670,0.42071131,0.00319361,-0.00678896
 ,0.00000202,0.00053799,0.00097575,-0.00019288,0.00053775,0.00097549,0.
 00019256,-0.00098436,-0.00124058,0.00000026,-0.05049066,-0.03979519,-0
 .00000418,-0.00165767,0.00359434,-0.00000123,0.00931250,-0.00213296,0.
 00000145,-0.00648270,-0.00483281,-0.00000070,0.00169359,-0.00075637,0.
 00000040,-0.00049436,0.00029907,0.00020875,-0.00049417,0.00029891,-0.0
 0020845,-0.00112395,-0.00008859,-0.00000040,-0.00106464,0.00037867,-0.
 00000020,-0.16523119,-0.15553840,-0.00001667,0.21274825,0.20465162,-0.
 00000048,0.00000244,0.00498504,-0.00094866,0.00013434,-0.00003616,0.00
 094889,-0.00013402,-0.00003561,0.00000025,0.00000064,-0.00010685,0.000
 00907,0.00000290,0.00126516,-0.00000103,-0.00000005,-0.00199966,-0.000
 00074,0.00000351,0.00132416,0.00000145,-0.00000264,-0.00665289,-0.0000
 0037,0.00000091,0.00223675,-0.00019497,0.00019542,-0.00024907,0.000194
 86,-0.00019569,-0.00024891,0.00000024,-0.00000015,-0.00019779,0.000000
 06,-0.00000035,-0.00094275,-0.00006321,-0.00002652,-0.01868740,0.00005
 466,0.00001926,0.01934598\\0.00000471,0.00002229,-0.00000752,-0.000005
 77,-0.00000273,-0.00001570,-0.00001285,-0.00000289,0.00001389,-0.00000
 630,-0.00002282,0.00000028,0.00003140,0.00003392,0.00002743,-0.0000017
 9,0.00001506,0.00000158,-0.00001868,-0.00001188,-0.00001541,0.00001591
 ,0.00002659,0.00000881,0.00000184,-0.00000065,0.00000441,-0.00000582,-
 0.00001241,0.00000089,-0.00001068,-0.00001222,-0.00000028,0.00001753,0
 .00002416,-0.00000229,-0.00000124,-0.00001317,-0.00000408,-0.00001483,
 -0.00001759,-0.00000902,0.00000658,-0.00002566,-0.00000297\\\@
 Job cpu time:       0 days  1 hours 30 minutes 27.1 seconds.
 Elapsed time:       0 days  0 hours 12 minutes 55.7 seconds.
 File lengths (MBytes):  RWF=  38130 Int=      0 D2E=      0 Chk=     25 Scr=      1
 Normal termination of Gaussian 16 at Fri Nov 26 12:46:32 2021.
