 Entering Gaussian System, Link 0=/home/artemiy/opt/gaussian/g16/g16
 Input=1,1,1,5,5,5-Hexafluoro-2,4-pentanedione_enol_G4_new2.gjf
 Output=1,1,1,5,5,5-Hexafluoro-2,4-pentanedione_enol_G4_new2.log
 Initial command:
 /home/artemiy/opt/gaussian/g16/l1.exe "/home/artemiy/opt/gaussian/scr/Gau-1828.inp" -scrdir="/home/artemiy/opt/gaussian/scr/"
 Entering Link 1 = /home/artemiy/opt/gaussian/g16/l1.exe PID=      1831.
  
 Copyright (c) 1988,1990,1992,1993,1995,1998,2003,2009,2016,
            Gaussian, Inc.  All Rights Reserved.
  
 This is part of the Gaussian(R) 16 program.  It is based on
 the Gaussian(R) 09 system (copyright 2009, Gaussian, Inc.),
 the Gaussian(R) 03 system (copyright 2003, Gaussian, Inc.),
 the Gaussian(R) 98 system (copyright 1998, Gaussian, Inc.),
 the Gaussian(R) 94 system (copyright 1995, Gaussian, Inc.),
 the Gaussian 92(TM) system (copyright 1992, Gaussian, Inc.),
 the Gaussian 90(TM) system (copyright 1990, Gaussian, Inc.),
 the Gaussian 88(TM) system (copyright 1988, Gaussian, Inc.),
 the Gaussian 86(TM) system (copyright 1986, Carnegie Mellon
 University), and the Gaussian 82(TM) system (copyright 1983,
 Carnegie Mellon University). Gaussian is a federally registered
 trademark of Gaussian, Inc.
  
 This software contains proprietary and confidential information,
 including trade secrets, belonging to Gaussian, Inc.
  
 This software is provided under written license and may be
 used, copied, transmitted, or stored only in accord with that
 written license.
  
 The following legend is applicable only to US Government
 contracts under FAR:
  
                    RESTRICTED RIGHTS LEGEND
  
 Use, reproduction and disclosure by the US Government is
 subject to restrictions as set forth in subparagraphs (a)
 and (c) of the Commercial Computer Software - Restricted
 Rights clause in FAR 52.227-19.
  
 Gaussian, Inc.
 340 Quinnipiac St., Bldg. 40, Wallingford CT 06492
  
  
 ---------------------------------------------------------------
 Warning -- This program may not be used in any manner that
 competes with the business of Gaussian, Inc. or will provide
 assistance to any competitor of Gaussian, Inc.  The licensee
 of this program is prohibited from giving any competitor of
 Gaussian, Inc. access to this program.  By using this program,
 the user acknowledges that Gaussian, Inc. is engaged in the
 business of creating and licensing software in the field of
 computational chemistry and represents and warrants to the
 licensee that it is not a competitor of Gaussian, Inc. and that
 it will not use this program in any manner prohibited above.
 ---------------------------------------------------------------
  

 Cite this work as:
 Gaussian 16, Revision A.03,
 M. J. Frisch, G. W. Trucks, H. B. Schlegel, G. E. Scuseria, 
 M. A. Robb, J. R. Cheeseman, G. Scalmani, V. Barone, 
 G. A. Petersson, H. Nakatsuji, X. Li, M. Caricato, A. V. Marenich, 
 J. Bloino, B. G. Janesko, R. Gomperts, B. Mennucci, H. P. Hratchian, 
 J. V. Ortiz, A. F. Izmaylov, J. L. Sonnenberg, D. Williams-Young, 
 F. Ding, F. Lipparini, F. Egidi, J. Goings, B. Peng, A. Petrone, 
 T. Henderson, D. Ranasinghe, V. G. Zakrzewski, J. Gao, N. Rega, 
 G. Zheng, W. Liang, M. Hada, M. Ehara, K. Toyota, R. Fukuda, 
 J. Hasegawa, M. Ishida, T. Nakajima, Y. Honda, O. Kitao, H. Nakai, 
 T. Vreven, K. Throssell, J. A. Montgomery, Jr., J. E. Peralta, 
 F. Ogliaro, M. J. Bearpark, J. J. Heyd, E. N. Brothers, K. N. Kudin, 
 V. N. Staroverov, T. A. Keith, R. Kobayashi, J. Normand, 
 K. Raghavachari, A. P. Rendell, J. C. Burant, S. S. Iyengar, 
 J. Tomasi, M. Cossi, J. M. Millam, M. Klene, C. Adamo, R. Cammi, 
 J. W. Ochterski, R. L. Martin, K. Morokuma, O. Farkas, 
 J. B. Foresman, and D. J. Fox, Gaussian, Inc., Wallingford CT, 2016.
 
 ******************************************
 Gaussian 16:  ES64L-G16RevA.03 25-Dec-2016
                 2-Dec-2021 
 ******************************************
 %mem=47GB
 %nprocshared=7
 Will use up to    7 processors via shared memory.
 -------------
 # g4 geom=gic
 -------------
 1/18=20,19=15,26=3,38=1,145=2/1,3;
 2/9=110,12=2,17=6,18=5,40=1/2;
 3/5=35,7=104,11=2,25=1,30=1,71=1,74=-5/1,2,3;
 4//1;
 5/5=2,38=5/2;
 6/7=2,8=2,9=2,10=2,28=1/1;
 7//1,2,3,16;
 1/18=20,19=15,26=3,145=2/3(2);
 2/9=110/2;
 99//99;
 2/9=110/2;
 3/5=35,7=104,11=2,25=1,30=1,71=1,74=-5/1,2,3;
 4/5=5,16=3,69=1/1;
 5/5=2,38=5/2;
 7//1,2,3,16;
 1/18=20,19=15,26=3,145=2/3(-5);
 2/9=110/2;
 6/7=2,8=2,9=2,10=2,19=2,28=1/1;
 99/9=1/99;
 -------------------
 CAS 1522-22-1
 -------------------
 Symbolic Z-matrix:
 Charge =  0 Multiplicity = 1
 C                    -2.51907  -0.31156   0.00696 
 F                    -3.22218   0.01421  -1.07874 
 F                    -3.22394   0.04348   1.08304 
 F                    -2.35815  -1.63609   0.02449 
 C                    -1.17528   0.40463  -0.00194 
 C                     0.01095  -0.26124   0.01182 
 C                     1.22451   0.5123   -0.00107 
 O                     1.26455   1.74159  -0.02075 
 C                     2.55212  -0.28131   0. 
 F                     2.5906   -1.10025   1.06192 
 F                     2.62489  -1.03923  -1.10403 
 F                     3.60102   0.5235    0.03963 
 H                     0.03618  -1.33963   0.03054 
 O                    -1.30533   1.71192  -0.02348 
 H                    -0.37958   2.08398  -0.02722 
 
 Initializing the GIC definitions file.

 GradGradGradGradGradGradGradGradGradGradGradGradGradGradGradGradGradGrad
 Berny optimization.
 Initialization pass.
                           ----------------------------
                           !    Initial Parameters    !
                           ! (Angstroms and Degrees)  !
 --------------------------                            --------------------------
 ! Name  Definition              Value          Derivative Info.                !
 --------------------------------------------------------------------------------
 ! R1    R(1,2)                  1.3339         estimate D2E/DX2                !
 ! R2    R(1,3)                  1.3345         estimate D2E/DX2                !
 ! R3    R(1,4)                  1.3344         estimate D2E/DX2                !
 ! R4    R(1,5)                  1.5228         estimate D2E/DX2                !
 ! R5    R(5,6)                  1.3604         estimate D2E/DX2                !
 ! R6    R(5,14)                 1.3139         estimate D2E/DX2                !
 ! R7    R(6,7)                  1.4392         estimate D2E/DX2                !
 ! R8    R(6,13)                 1.0788         estimate D2E/DX2                !
 ! R9    R(7,8)                  1.2301         estimate D2E/DX2                !
 ! R10   R(7,9)                  1.5467         estimate D2E/DX2                !
 ! R11   R(9,10)                 1.3416         estimate D2E/DX2                !
 ! R12   R(9,11)                 1.3411         estimate D2E/DX2                !
 ! R13   R(9,12)                 1.3227         estimate D2E/DX2                !
 ! R14   R(14,15)                0.9977         estimate D2E/DX2                !
 ! A1    A(2,1,3)              108.2364         estimate D2E/DX2                !
 ! A2    A(2,1,4)              108.4632         estimate D2E/DX2                !
 ! A3    A(2,1,5)              110.2149         estimate D2E/DX2                !
 ! A4    A(3,1,4)              108.4931         estimate D2E/DX2                !
 ! A5    A(3,1,5)              110.2244         estimate D2E/DX2                !
 ! A6    A(4,1,5)              111.1309         estimate D2E/DX2                !
 ! A7    A(1,5,6)              122.631          estimate D2E/DX2                !
 ! A8    A(1,5,14)             112.3769         estimate D2E/DX2                !
 ! A9    A(6,5,14)             124.9921         estimate D2E/DX2                !
 ! A10   A(5,6,7)              118.1707         estimate D2E/DX2                !
 ! A11   A(5,6,13)             120.6515         estimate D2E/DX2                !
 ! A12   A(7,6,13)             121.1777         estimate D2E/DX2                !
 ! A13   A(6,7,8)              124.3825         estimate D2E/DX2                !
 ! A14   A(6,7,9)              116.6144         estimate D2E/DX2                !
 ! A15   A(8,7,9)              119.0015         estimate D2E/DX2                !
 ! A16   A(7,9,10)             109.778          estimate D2E/DX2                !
 ! A17   A(7,9,11)             109.6314         estimate D2E/DX2                !
 ! A18   A(7,9,12)             111.6222         estimate D2E/DX2                !
 ! A19   A(10,9,11)            107.763          estimate D2E/DX2                !
 ! A20   A(10,9,12)            108.9636         estimate D2E/DX2                !
 ! A21   A(11,9,12)            108.9962         estimate D2E/DX2                !
 ! A22   A(5,14,15)            106.2148         estimate D2E/DX2                !
 ! D1    D(2,1,5,6)           -120.4979         estimate D2E/DX2                !
 ! D2    D(2,1,5,14)            59.5266         estimate D2E/DX2                !
 ! D3    D(3,1,5,6)            120.0926         estimate D2E/DX2                !
 ! D4    D(3,1,5,14)           -59.883          estimate D2E/DX2                !
 ! D5    D(4,1,5,6)             -0.2246         estimate D2E/DX2                !
 ! D6    D(4,1,5,14)           179.7999         estimate D2E/DX2                !
 ! D7    D(1,5,6,7)            179.8759         estimate D2E/DX2                !
 ! D8    D(1,5,6,13)            -0.0436         estimate D2E/DX2                !
 ! D9    D(14,5,6,7)            -0.1517         estimate D2E/DX2                !
 ! D10   D(14,5,6,13)          179.9288         estimate D2E/DX2                !
 ! D11   D(1,5,14,15)          179.975          estimate D2E/DX2                !
 ! D12   D(6,5,14,15)            0.0001         estimate D2E/DX2                !
 ! D13   D(5,6,7,8)              0.1732         estimate D2E/DX2                !
 ! D14   D(5,6,7,9)           -179.3694         estimate D2E/DX2                !
 ! D15   D(13,6,7,8)          -179.9077         estimate D2E/DX2                !
 ! D16   D(13,6,7,9)             0.5497         estimate D2E/DX2                !
 ! D17   D(6,7,9,10)           -56.6433         estimate D2E/DX2                !
 ! D18   D(6,7,9,11)            61.552          estimate D2E/DX2                !
 ! D19   D(6,7,9,12)          -177.5747         estimate D2E/DX2                !
 ! D20   D(8,7,9,10)           123.7882         estimate D2E/DX2                !
 ! D21   D(8,7,9,11)          -118.0164         estimate D2E/DX2                !
 ! D22   D(8,7,9,12)             2.8569         estimate D2E/DX2                !
 --------------------------------------------------------------------------------
 Trust Radius=3.00D-01 FncErr=1.00D-07 GrdErr=1.00D-06 EigMax=2.50D+02 EigMin=1.00D-04
 Number of steps in this run=     68 maximum allowed number of steps=    100.
 GradGradGradGradGradGradGradGradGradGradGradGradGradGradGradGradGradGrad

                          Input orientation:                          
 ---------------------------------------------------------------------
 Center     Atomic      Atomic             Coordinates (Angstroms)
 Number     Number       Type             X           Y           Z
 ---------------------------------------------------------------------
      1          6           0       -2.519074   -0.311563    0.006957
      2          9           0       -3.222179    0.014211   -1.078738
      3          9           0       -3.223941    0.043481    1.083043
      4          9           0       -2.358147   -1.636088    0.024494
      5          6           0       -1.175278    0.404627   -0.001940
      6          6           0        0.010953   -0.261236    0.011819
      7          6           0        1.224513    0.512303   -0.001074
      8          8           0        1.264545    1.741593   -0.020746
      9          6           0        2.552124   -0.281314    0.000001
     10          9           0        2.590603   -1.100250    1.061920
     11          9           0        2.624893   -1.039230   -1.104028
     12          9           0        3.601024    0.523500    0.039633
     13          1           0        0.036179   -1.339628    0.030538
     14          8           0       -1.305333    1.711924   -0.023481
     15          1           0       -0.379580    2.083976   -0.027217
 ---------------------------------------------------------------------
                    Distance matrix (angstroms):
                    1          2          3          4          5
     1  C    0.000000
     2  F    1.333874   0.000000
     3  F    1.334487   2.161980   0.000000
     4  F    1.334381   2.164985   2.165889   0.000000
     5  C    1.522759   2.345575   2.346196   2.358897   0.000000
     6  C    2.530532   3.423204   3.421244   2.739163   1.360407
     7  C    3.833179   4.602448   4.602591   4.177522   2.402206
     8  O    4.304880   4.922793   4.924271   4.953249   2.782188
     9  C    5.071293   5.881631   5.885694   5.093798   3.789993
    10  F    5.276720   6.293876   5.926001   5.084634   4.192650
    11  F    5.312644   5.941265   6.337539   5.143976   4.211962
    12  F    6.176892   6.932981   6.920930   6.338436   4.777962
    13  H    2.754413   3.698685   3.694474   2.412617   2.123937
    14  O    2.359787   2.769494   2.772932   3.509972   1.313927
    15  H    3.212041   3.670149   3.672422   4.213820   1.858491
                    6          7          8          9         10
     6  C    0.000000
     7  C    1.439186   0.000000
     8  O    2.363023   1.230099   0.000000
     9  C    2.541278   1.546732   2.398008   0.000000
    10  F    2.908823   2.365689   3.317630   1.341570   0.000000
    11  F    2.946705   2.363224   3.279790   1.341123   2.167079
    12  F    3.674941   2.376886   2.635627   1.322682   2.168545
    13  H    1.078849   2.200633   3.317444   2.729641   2.765164
    14  O    2.372175   2.799949   2.570051   4.342064   4.925925
    15  H    2.377827   2.245875   1.679409   3.766992   4.488597
                   11         12         13         14         15
    11  F    0.000000
    12  F    2.168621   0.000000
    13  H    2.842344   4.022369   0.000000
    14  O    4.917632   5.048631   3.333848   0.000000
    15  H    4.465512   4.276069   3.449240   0.997725   0.000000
 Stoichiometry    C5H2F6O2
 Framework group  C1[X(C5H2F6O2)]
 Deg. of freedom    39
 Full point group                 C1      NOp   1
 Largest Abelian subgroup         C1      NOp   1
 Largest concise Abelian subgroup C1      NOp   1
                         Standard orientation:                         
 ---------------------------------------------------------------------
 Center     Atomic      Atomic             Coordinates (Angstroms)
 Number     Number       Type             X           Y           Z
 ---------------------------------------------------------------------
      1          6           0        2.519088   -0.311533    0.000356
      2          9           0        3.220715    0.028483    1.082634
      3          9           0        3.225404    0.029390   -1.079340
      4          9           0        2.358212   -1.636181   -0.000021
      5          6           0        1.175266    0.404660   -0.001963
      6          6           0       -0.010931   -0.261371   -0.008592
      7          6           0       -1.224524    0.512224   -0.007491
      8          8           0       -1.264608    1.741664   -0.004003
      9          6           0       -2.552116   -0.281390    0.000048
     10          9           0       -2.589139   -1.114189   -1.051087
     11          9           0       -2.626364   -1.024760    1.113825
     12          9           0       -3.600978    0.522794   -0.051560
     13          1           0       -0.036110   -1.339917   -0.013196
     14          8           0        1.305265    1.712132    0.002601
     15          1           0        0.379500    2.084166    0.000202
 ---------------------------------------------------------------------
 Rotational constants (GHZ):           1.6947735           0.3782791           0.3470605
 Standard basis: GTBas3 (6D, 7F)
 There are   413 symmetry adapted cartesian basis functions of A   symmetry.
 There are   374 symmetry adapted basis functions of A   symmetry.
   374 basis functions,   586 primitive gaussians,   413 cartesian basis functions
    51 alpha electrons       51 beta electrons
       nuclear repulsion energy       884.6450549751 Hartrees.
 NAtoms=   15 NActive=   15 NUniq=   15 SFac= 1.00D+00 NAtFMM=   60 NAOKFM=F Big=F
 Integral buffers will be    131072 words long.
 Raffenetti 2 integral format.
 Two-electron integral symmetry is turned on.
 One-electron integrals computed using PRISM.
 NBasis=   374 RedAO= T EigKep=  3.12D-04  NBF=   374
 NBsUse=   374 1.00D-06 EigRej= -1.00D+00 NBFU=   374
 ExpMin= 1.61D-01 ExpMax= 7.00D+03 ExpMxC= 1.05D+03 IAcc=3 IRadAn=         5 AccDes= 0.00D+00
 Harris functional with IExCor=  402 and IRadAn=       5 diagonalized for initial guess.
 HarFok:  IExCor=  402 AccDes= 0.00D+00 IRadAn=         5 IDoV= 1 UseB2=F ITyADJ=14
 ICtDFT=  3500011 ScaDFX=  1.000000  1.000000  1.000000  1.000000
 FoFCou: FMM=F IPFlag=           0 FMFlag=      100000 FMFlg1=           0
         NFxFlg=           0 DoJE=T BraDBF=F KetDBF=T FulRan=T
         wScrn=  0.000000 ICntrl=       500 IOpCl=  0 I1Cent=   200000004 NGrid=           0
         NMat0=    1 NMatS0=      1 NMatT0=    0 NMatD0=    1 NMtDS0=    0 NMtDT0=    0
 Petite list used in FoFCou.
 Requested convergence on RMS density matrix=1.00D-08 within 128 cycles.
 Requested convergence on MAX density matrix=1.00D-06.
 Requested convergence on             energy=1.00D-06.
 No special actions if energy rises.
 Integral accuracy reduced to 1.0D-05 until final iterations.
 Initial convergence to 1.0D-05 achieved.  Increase integral accuracy.
 SCF Done:  E(RB3LYP) =  -941.274133295     A.U. after   14 cycles
            NFock= 14  Conv=0.44D-08     -V/T= 2.0058

 **********************************************************************

            Population analysis using the SCF density.

 **********************************************************************

 Orbital symmetries:
       Occupied  (A) (A) (A) (A) (A) (A) (A) (A) (A) (A) (A) (A)
                 (A) (A) (A) (A) (A) (A) (A) (A) (A) (A) (A) (A)
                 (A) (A) (A) (A) (A) (A) (A) (A) (A) (A) (A) (A)
                 (A) (A) (A) (A) (A) (A) (A) (A) (A) (A) (A) (A)
                 (A) (A) (A)
       Virtual   (A) (A) (A) (A) (A) (A) (A) (A) (A) (A) (A) (A)
                 (A) (A) (A) (A) (A) (A) (A) (A) (A) (A) (A) (A)
                 (A) (A) (A) (A) (A) (A) (A) (A) (A) (A) (A) (A)
                 (A) (A) (A) (A) (A) (A) (A) (A) (A) (A) (A) (A)
                 (A) (A) (A) (A) (A) (A) (A) (A) (A) (A) (A) (A)
                 (A) (A) (A) (A) (A) (A) (A) (A) (A) (A) (A) (A)
                 (A) (A) (A) (A) (A) (A) (A) (A) (A) (A) (A) (A)
                 (A) (A) (A) (A) (A) (A) (A) (A) (A) (A) (A) (A)
                 (A) (A) (A) (A) (A) (A) (A) (A) (A) (A) (A) (A)
                 (A) (A) (A) (A) (A) (A) (A) (A) (A) (A) (A) (A)
                 (A) (A) (A) (A) (A) (A) (A) (A) (A) (A) (A) (A)
                 (A) (A) (A) (A) (A) (A) (A) (A) (A) (A) (A) (A)
                 (A) (A) (A) (A) (A) (A) (A) (A) (A) (A) (A) (A)
                 (A) (A) (A) (A) (A) (A) (A) (A) (A) (A) (A) (A)
                 (A) (A) (A) (A) (A) (A) (A) (A) (A) (A) (A) (A)
                 (A) (A) (A) (A) (A) (A) (A) (A) (A) (A) (A) (A)
                 (A) (A) (A) (A) (A) (A) (A) (A) (A) (A) (A) (A)
                 (A) (A) (A) (A) (A) (A) (A) (A) (A) (A) (A) (A)
                 (A) (A) (A) (A) (A) (A) (A) (A) (A) (A) (A) (A)
                 (A) (A) (A) (A) (A) (A) (A) (A) (A) (A) (A) (A)
                 (A) (A) (A) (A) (A) (A) (A) (A) (A) (A) (A) (A)
                 (A) (A) (A) (A) (A) (A) (A) (A) (A) (A) (A) (A)
                 (A) (A) (A) (A) (A) (A) (A) (A) (A) (A) (A) (A)
                 (A) (A) (A) (A) (A) (A) (A) (A) (A) (A) (A) (A)
                 (A) (A) (A) (A) (A) (A) (A) (A) (A) (A) (A) (A)
                 (A) (A) (A) (A) (A) (A) (A) (A) (A) (A) (A) (A)
                 (A) (A) (A) (A) (A) (A) (A) (A) (A) (A) (A)
 The electronic state is 1-A.
 Alpha  occ. eigenvalues --  -24.74943 -24.74382 -24.74372 -24.74195 -24.74186
 Alpha  occ. eigenvalues --  -24.74154 -19.21818 -19.18243 -10.45143 -10.44094
 Alpha  occ. eigenvalues --  -10.31669 -10.31542 -10.22411  -1.33593  -1.33024
 Alpha  occ. eigenvalues --   -1.24779  -1.24368  -1.24283  -1.23945  -1.12480
 Alpha  occ. eigenvalues --   -1.08217  -0.83679  -0.77420  -0.73718  -0.67503
 Alpha  occ. eigenvalues --   -0.65306  -0.61471  -0.61087  -0.60641  -0.60612
 Alpha  occ. eigenvalues --   -0.58881  -0.55311  -0.52545  -0.49693  -0.48824
 Alpha  occ. eigenvalues --   -0.48189  -0.48111  -0.47677  -0.46699  -0.45068
 Alpha  occ. eigenvalues --   -0.44929  -0.44193  -0.43424  -0.42692  -0.42455
 Alpha  occ. eigenvalues --   -0.42297  -0.42120  -0.41204  -0.39981  -0.30289
 Alpha  occ. eigenvalues --   -0.28795
 Alpha virt. eigenvalues --   -0.10029   0.02093   0.08536   0.11729   0.13745
 Alpha virt. eigenvalues --    0.15478   0.19365   0.19666   0.19737   0.20253
 Alpha virt. eigenvalues --    0.21393   0.23053   0.25375   0.28515   0.31876
 Alpha virt. eigenvalues --    0.35055   0.37255   0.38030   0.40014   0.40724
 Alpha virt. eigenvalues --    0.40877   0.42905   0.45104   0.47244   0.49640
 Alpha virt. eigenvalues --    0.51574   0.54045   0.54569   0.55018   0.56714
 Alpha virt. eigenvalues --    0.61466   0.62016   0.64097   0.64199   0.65813
 Alpha virt. eigenvalues --    0.67545   0.69493   0.71919   0.72855   0.73124
 Alpha virt. eigenvalues --    0.75881   0.80921   0.82092   0.83100   0.83331
 Alpha virt. eigenvalues --    0.83859   0.85171   0.85741   0.86928   0.87563
 Alpha virt. eigenvalues --    0.88768   0.90243   0.91537   0.91930   0.93010
 Alpha virt. eigenvalues --    0.94240   0.95308   0.96046   0.96373   0.96890
 Alpha virt. eigenvalues --    0.99009   0.99533   0.99586   0.99649   1.01443
 Alpha virt. eigenvalues --    1.02193   1.04296   1.04695   1.04821   1.05191
 Alpha virt. eigenvalues --    1.07878   1.09194   1.09902   1.12370   1.15251
 Alpha virt. eigenvalues --    1.15406   1.17316   1.17725   1.19038   1.19831
 Alpha virt. eigenvalues --    1.19926   1.24268   1.27722   1.28732   1.30602
 Alpha virt. eigenvalues --    1.33222   1.34269   1.36046   1.36764   1.39211
 Alpha virt. eigenvalues --    1.39520   1.41602   1.42749   1.44463   1.45569
 Alpha virt. eigenvalues --    1.47698   1.50195   1.53484   1.53945   1.54650
 Alpha virt. eigenvalues --    1.55733   1.55993   1.57858   1.61780   1.62426
 Alpha virt. eigenvalues --    1.66138   1.67158   1.68401   1.70056   1.73083
 Alpha virt. eigenvalues --    1.75498   1.76090   1.76713   1.79745   1.80008
 Alpha virt. eigenvalues --    1.83044   1.85947   1.89068   1.92896   1.93680
 Alpha virt. eigenvalues --    1.95673   1.99617   2.01852   2.02206   2.07887
 Alpha virt. eigenvalues --    2.12264   2.17687   2.20205   2.21787   2.22750
 Alpha virt. eigenvalues --    2.24491   2.29431   2.34437   2.35947   2.37832
 Alpha virt. eigenvalues --    2.42350   2.49209   2.53171   2.70354   2.75181
 Alpha virt. eigenvalues --    2.83556   2.83606   2.87371   2.88845   2.90974
 Alpha virt. eigenvalues --    2.93031   3.02214   3.04316   3.06555   3.06786
 Alpha virt. eigenvalues --    3.08333   3.12081   3.12357   3.13939   3.16691
 Alpha virt. eigenvalues --    3.16884   3.20104   3.23341   3.23975   3.25844
 Alpha virt. eigenvalues --    3.30026   3.31372   3.40287   3.41394   3.44920
 Alpha virt. eigenvalues --    3.48830   3.50398   3.53511   3.53787   3.67072
 Alpha virt. eigenvalues --    3.71291   3.74766   3.75527   3.77313   3.79462
 Alpha virt. eigenvalues --    3.84333   3.88434   3.91632   3.92670   3.94702
 Alpha virt. eigenvalues --    3.98364   4.01593   4.03819   4.05274   4.05639
 Alpha virt. eigenvalues --    4.11025   4.11666   4.11838   4.13223   4.14328
 Alpha virt. eigenvalues --    4.14809   4.16206   4.16390   4.17947   4.18422
 Alpha virt. eigenvalues --    4.19343   4.20679   4.21525   4.21555   4.22840
 Alpha virt. eigenvalues --    4.23020   4.23780   4.24147   4.25400   4.28810
 Alpha virt. eigenvalues --    4.33069   4.33147   4.34037   4.35530   4.37645
 Alpha virt. eigenvalues --    4.39635   4.42193   4.43502   4.43899   4.46903
 Alpha virt. eigenvalues --    4.48475   4.52536   4.53252   4.54716   4.56087
 Alpha virt. eigenvalues --    4.57429   4.57894   4.59373   4.60359   4.62881
 Alpha virt. eigenvalues --    4.64291   4.65946   4.67201   4.69438   4.70911
 Alpha virt. eigenvalues --    4.72604   4.73766   4.75227   4.79217   4.80691
 Alpha virt. eigenvalues --    4.82201   4.84785   4.86625   4.89126   4.90993
 Alpha virt. eigenvalues --    5.00457   5.03866   5.04323   5.07776   5.10540
 Alpha virt. eigenvalues --    5.11397   5.15398   5.26178   5.27254   5.40554
 Alpha virt. eigenvalues --    5.43781   5.46955   5.50091   5.56487   5.62776
 Alpha virt. eigenvalues --    5.68935   5.77258   5.85635   5.87472   5.97993
 Alpha virt. eigenvalues --    6.16486   6.27131   6.30757   6.41421   6.53305
 Alpha virt. eigenvalues --    6.58286   6.58889   6.58960   6.59182   6.59261
 Alpha virt. eigenvalues --    6.59448   6.59549   6.59646   6.59963   6.60313
 Alpha virt. eigenvalues --    6.60590   6.60794   6.61686   6.63077   6.65788
 Alpha virt. eigenvalues --    6.65910   6.72256   6.73194   6.73948   6.77447
 Alpha virt. eigenvalues --    6.78088   6.79485   6.81184   6.88347   6.93113
 Alpha virt. eigenvalues --    6.93456   7.12093   7.16124   7.17573   7.20017
 Alpha virt. eigenvalues --    7.21492   7.23612   7.27138   7.37001   7.37242
 Alpha virt. eigenvalues --    7.39834   7.40598   7.41552   7.42719   7.46998
 Alpha virt. eigenvalues --    7.48176   7.54158   7.55032   7.97198   8.18275
 Alpha virt. eigenvalues --    9.52944   9.60997   9.61911   9.62863   9.69139
 Alpha virt. eigenvalues --    9.77165  10.31408  11.11169  11.57239  12.22170
 Alpha virt. eigenvalues --   12.36116  13.32780  13.53491
          Condensed to atoms (all electrons):
               1          2          3          4          5          6
     1  C    4.202536   0.436489   0.436262   0.473305   0.190189  -0.007642
     2  F    0.436489   8.735044  -0.045967  -0.040061  -0.024006   0.001576
     3  F    0.436262  -0.045967   8.735958  -0.040009  -0.024073   0.001534
     4  F    0.473305  -0.040061  -0.040009   8.710551  -0.065490   0.013082
     5  C    0.190189  -0.024006  -0.024073  -0.065490   5.039892   0.283696
     6  C   -0.007642   0.001576   0.001534   0.013082   0.283696   5.659462
     7  C    0.002421  -0.000084  -0.000083   0.000764   0.006179   0.158049
     8  O    0.000250   0.000000   0.000000  -0.000000  -0.003524  -0.067396
     9  C   -0.000079  -0.000000  -0.000000  -0.000004  -0.001543  -0.025772
    10  F   -0.000002   0.000000   0.000000   0.000000   0.000523   0.008655
    11  F   -0.000002   0.000000   0.000000   0.000000   0.000376   0.007560
    12  F    0.000000   0.000000   0.000000   0.000000  -0.000078   0.003001
    13  H   -0.002126   0.000189   0.000189   0.008969  -0.030649   0.364524
    14  O   -0.007922  -0.003068  -0.003055   0.000313   0.449994  -0.042148
    15  H    0.001867  -0.000100  -0.000101  -0.000020  -0.044553  -0.014156
               7          8          9         10         11         12
     1  C    0.002421   0.000250  -0.000079  -0.000002  -0.000002   0.000000
     2  F   -0.000084   0.000000  -0.000000   0.000000   0.000000   0.000000
     3  F   -0.000083   0.000000  -0.000000   0.000000   0.000000   0.000000
     4  F    0.000764  -0.000000  -0.000004   0.000000   0.000000   0.000000
     5  C    0.006179  -0.003524  -0.001543   0.000523   0.000376  -0.000078
     6  C    0.158049  -0.067396  -0.025772   0.008655   0.007560   0.003001
     7  C    4.841375   0.655658   0.250539  -0.047066  -0.045002  -0.029513
     8  O    0.655658   7.786205  -0.024673  -0.000076  -0.000272  -0.002168
     9  C    0.250539  -0.024673   4.246322   0.417849   0.418444   0.473298
    10  F   -0.047066  -0.000076   0.417849   8.775588  -0.044198  -0.038503
    11  F   -0.045002  -0.000272   0.418444  -0.044198   8.774816  -0.039153
    12  F   -0.029513  -0.002168   0.473298  -0.038503  -0.039153   8.676186
    13  H   -0.026828   0.002002   0.004828   0.001611   0.000883   0.000108
    14  O   -0.005481  -0.032925   0.000111  -0.000000   0.000000   0.000000
    15  H   -0.004965   0.072167   0.000681  -0.000014  -0.000015   0.000001
              13         14         15
     1  C   -0.002126  -0.007922   0.001867
     2  F    0.000189  -0.003068  -0.000100
     3  F    0.000189  -0.003055  -0.000101
     4  F    0.008969   0.000313  -0.000020
     5  C   -0.030649   0.449994  -0.044553
     6  C    0.364524  -0.042148  -0.014156
     7  C   -0.026828  -0.005481  -0.004965
     8  O    0.002002  -0.032925   0.072167
     9  C    0.004828   0.000111   0.000681
    10  F    0.001611  -0.000000  -0.000014
    11  F    0.000883   0.000000  -0.000015
    12  F    0.000108   0.000000   0.000001
    13  H    0.524180   0.001897  -0.000246
    14  O    0.001897   7.726403   0.290610
    15  H   -0.000246   0.290610   0.353811
 Mulliken charges:
               1
     1  C    0.274452
     2  F   -0.060013
     3  F   -0.060655
     4  F   -0.061400
     5  C    0.223067
     6  C   -0.344025
     7  C    0.244036
     8  O   -0.385249
     9  C    0.240000
    10  F   -0.074368
    11  F   -0.073437
    12  F   -0.043180
    13  H    0.150468
    14  O   -0.374730
    15  H    0.345034
 Sum of Mulliken charges =  -0.00000
 Mulliken charges with hydrogens summed into heavy atoms:
               1
     1  C    0.274452
     2  F   -0.060013
     3  F   -0.060655
     4  F   -0.061400
     5  C    0.223067
     6  C   -0.193557
     7  C    0.244036
     8  O   -0.385249
     9  C    0.240000
    10  F   -0.074368
    11  F   -0.073437
    12  F   -0.043180
    14  O   -0.029697
 Electronic spatial extent (au):  <R**2>=           2815.9618
 Charge=              0.0000 electrons
 Dipole moment (field-independent basis, Debye):
    X=              0.2768    Y=             -0.7183    Z=             -0.0150  Tot=              0.7700
 Quadrupole moment (field-independent basis, Debye-Ang):
   XX=            -74.9558   YY=            -69.3545   ZZ=            -67.7364
   XY=              0.5803   XZ=              0.0172   YZ=             -0.0018
 Traceless Quadrupole moment (field-independent basis, Debye-Ang):
   XX=             -4.2736   YY=              1.3277   ZZ=              2.9458
   XY=              0.5803   XZ=              0.0172   YZ=             -0.0018
 Octapole moment (field-independent basis, Debye-Ang**2):
  XXX=              0.4985  YYY=            -12.0542  ZZZ=             -0.0141  XYY=              3.1738
  XXY=             -8.8901  XXZ=              0.0532  XZZ=             -0.9678  YZZ=             -1.4445
  YYZ=              0.1286  XYZ=             -0.0399
 Hexadecapole moment (field-independent basis, Debye-Ang**3):
 XXXX=          -2224.7139 YYYY=           -422.3434 ZZZZ=           -178.0712 XXXY=              0.7170
 XXXZ=             -0.1898 YYYX=              9.3808 YYYZ=             -0.0551 ZZZX=              0.3060
 ZZZY=              0.0291 XXYY=           -453.5757 XXZZ=           -399.9702 YYZZ=           -100.6977
 XXYZ=              0.1314 YYXZ=             -0.2914 ZZXY=             -4.0397
 N-N= 8.846450549751D+02 E-N=-3.997041024653D+03  KE= 9.358204053606D+02
 Calling FoFJK, ICntrl=      2127 FMM=F ISym2X=0 I1Cent= 0 IOpClX= 0 NMat=1 NMatS=1 NMatT=0.
 ***** Axes restored to original set *****
 -------------------------------------------------------------------
 Center     Atomic                   Forces (Hartrees/Bohr)
 Number     Number              X              Y              Z
 -------------------------------------------------------------------
      1        6          -0.000049451   -0.000013948    0.000143662
      2        9          -0.000091187    0.000039463   -0.000073071
      3        9           0.000172213   -0.000146295   -0.000225579
      4        9          -0.000027415    0.000154930    0.000109233
      5        6          -0.000017621    0.000275726    0.000062344
      6        6           0.000004510   -0.000095182    0.000067383
      7        6          -0.000003616    0.000109823   -0.000336584
      8        8           0.000019281   -0.000209778    0.000113971
      9        6           0.000293302   -0.000343211    0.000400701
     10        9           0.000073530    0.000493406   -0.000957507
     11        9           0.000079804    0.000459791    0.000795859
     12        9          -0.000479573   -0.000543407   -0.000105141
     13        1           0.000004519    0.000134851    0.000016119
     14        8          -0.000025666   -0.000319705    0.000011646
     15        1           0.000047369    0.000003539   -0.000023036
 -------------------------------------------------------------------
 Cartesian Forces:  Max     0.000957507 RMS     0.000278708

 GradGradGradGradGradGradGradGradGradGradGradGradGradGradGradGradGradGrad
 Berny optimization.
 FormGI is forming the generalized inverse of G from B-inverse, IUseBI=4.
 Internal  Forces:  Max     0.001057076 RMS     0.000230990
 Search for a local minimum.
 Step number   1 out of a maximum of   68
 All quantities printed in internal units (Hartrees-Bohrs-Radians)
 Mixed Optimization -- En-DIIS/RFO-DIIS
 Second derivative matrix not updated -- first step.
 ITU=  0
     Eigenvalues ---    0.00230   0.00465   0.00804   0.01570   0.01672
     Eigenvalues ---    0.02089   0.02612   0.02830   0.10716   0.10937
     Eigenvalues ---    0.11135   0.11192   0.16000   0.16000   0.22000
     Eigenvalues ---    0.24999   0.25000   0.25000   0.25000   0.25000
     Eigenvalues ---    0.25000   0.25000   0.25000   0.25000   0.25000
     Eigenvalues ---    0.27931   0.30102   0.36134   0.39697   0.48091
     Eigenvalues ---    0.52865   0.56855   0.56954   0.58458   0.58483
     Eigenvalues ---    0.58600   0.61268   0.63469   0.91045
 RFO step:  Lambda=-1.00863939D-05 EMin= 2.30000000D-03
 Linear search not attempted -- first point.
 Iteration  1 RMS(Cart)=  0.00642462 RMS(Int)=  0.00002846
 Iteration  2 RMS(Cart)=  0.00003132 RMS(Int)=  0.00000446
 Iteration  3 RMS(Cart)=  0.00000000 RMS(Int)=  0.00000446
 Variable       Old X    -DE/DX   Delta X   Delta X   Delta X     New X
                                 (Linear)    (Quad)   (Total)
    R1        2.52066   0.00012   0.00000   0.00020   0.00020   2.52086
    R2        2.52181  -0.00031   0.00000  -0.00053  -0.00053   2.52128
    R3        2.52161  -0.00016   0.00000  -0.00027  -0.00027   2.52135
    R4        2.87760  -0.00002   0.00000  -0.00007  -0.00007   2.87753
    R5        2.57080  -0.00001   0.00000  -0.00002  -0.00002   2.57078
    R6        2.48296  -0.00032   0.00000  -0.00050  -0.00050   2.48246
    R7        2.71967  -0.00003   0.00000  -0.00008  -0.00008   2.71959
    R8        2.03873  -0.00013   0.00000  -0.00037  -0.00037   2.03836
    R9        2.32455  -0.00021   0.00000  -0.00023  -0.00023   2.32432
   R10        2.92290  -0.00006   0.00000  -0.00022  -0.00022   2.92268
   R11        2.53520  -0.00106   0.00000  -0.00186  -0.00186   2.53334
   R12        2.53436  -0.00091   0.00000  -0.00160  -0.00160   2.53276
   R13        2.49951  -0.00071   0.00000  -0.00117  -0.00117   2.49834
   R14        1.88543   0.00005   0.00000   0.00009   0.00009   1.88552
    A1        1.88908  -0.00001   0.00000   0.00003   0.00003   1.88912
    A2        1.89304   0.00004   0.00000   0.00045   0.00045   1.89349
    A3        1.92361   0.00007   0.00000   0.00048   0.00048   1.92410
    A4        1.89356  -0.00010   0.00000  -0.00077  -0.00077   1.89279
    A5        1.92378   0.00001   0.00000  -0.00013  -0.00013   1.92365
    A6        1.93960  -0.00001   0.00000  -0.00008  -0.00008   1.93952
    A7        2.14031   0.00001   0.00000   0.00004   0.00004   2.14036
    A8        1.96135  -0.00000   0.00000  -0.00002  -0.00002   1.96133
    A9        2.18152  -0.00001   0.00000  -0.00002  -0.00002   2.18150
   A10        2.06247  -0.00000   0.00000  -0.00000  -0.00000   2.06246
   A11        2.10577   0.00001   0.00000   0.00005   0.00005   2.10582
   A12        2.11495  -0.00001   0.00000  -0.00005  -0.00005   2.11490
   A13        2.17088   0.00001   0.00000   0.00005   0.00004   2.17092
   A14        2.03531   0.00005   0.00000   0.00021   0.00019   2.03550
   A15        2.07697  -0.00005   0.00000  -0.00019  -0.00021   2.07676
   A16        1.91599   0.00026   0.00000   0.00117   0.00117   1.91716
   A17        1.91343   0.00013   0.00000   0.00027   0.00027   1.91370
   A18        1.94818   0.00018   0.00000   0.00084   0.00084   1.94901
   A19        1.88082  -0.00026   0.00000  -0.00130  -0.00130   1.87952
   A20        1.90177  -0.00011   0.00000   0.00002   0.00002   1.90180
   A21        1.90234  -0.00022   0.00000  -0.00110  -0.00110   1.90124
   A22        1.85380  -0.00003   0.00000  -0.00016  -0.00016   1.85363
    D1       -2.10308  -0.00001   0.00000   0.00125   0.00125  -2.10183
    D2        1.03893  -0.00002   0.00000   0.00086   0.00086   1.03980
    D3        2.09601  -0.00004   0.00000   0.00099   0.00099   2.09700
    D4       -1.04515  -0.00005   0.00000   0.00060   0.00060  -1.04456
    D5       -0.00392   0.00008   0.00000   0.00209   0.00209  -0.00183
    D6        3.13810   0.00007   0.00000   0.00170   0.00170   3.13980
    D7        3.13943   0.00003   0.00000   0.00102   0.00102   3.14045
    D8       -0.00076   0.00001   0.00000   0.00022   0.00022  -0.00054
    D9       -0.00265   0.00003   0.00000   0.00146   0.00146  -0.00118
   D10        3.14035   0.00002   0.00000   0.00066   0.00066   3.14101
   D11        3.14116   0.00002   0.00000   0.00093   0.00093  -3.14110
   D12        0.00000   0.00002   0.00000   0.00053   0.00053   0.00053
   D13        0.00302   0.00006   0.00000   0.00684   0.00684   0.00986
   D14       -3.13059  -0.00003   0.00000  -0.00496  -0.00496  -3.13555
   D15       -3.13998   0.00008   0.00000   0.00764   0.00764  -3.13234
   D16        0.00959  -0.00002   0.00000  -0.00416  -0.00416   0.00544
   D17       -0.98861   0.00014   0.00000   0.01404   0.01404  -0.97458
   D18        1.07429   0.00006   0.00000   0.01331   0.01331   1.08760
   D19       -3.09926  -0.00001   0.00000   0.01266   0.01266  -3.08660
   D20        2.16051   0.00005   0.00000   0.00290   0.00290   2.16341
   D21       -2.05978  -0.00003   0.00000   0.00218   0.00218  -2.05760
   D22        0.04986  -0.00010   0.00000   0.00152   0.00152   0.05139
         Item               Value     Threshold  Converged?
 Maximum Force            0.001057     0.000450     NO 
 RMS     Force            0.000231     0.000300     YES
 Maximum Displacement     0.025094     0.001800     NO 
 RMS     Displacement     0.006422     0.001200     NO 
 Predicted change in Energy=-5.043560D-06
 GradGradGradGradGradGradGradGradGradGradGradGradGradGradGradGradGradGrad

                          Input orientation:                          
 ---------------------------------------------------------------------
 Center     Atomic      Atomic             Coordinates (Angstroms)
 Number     Number       Type             X           Y           Z
 ---------------------------------------------------------------------
      1          6           0       -2.519210   -0.311368    0.009505
      2          9           0       -3.224387    0.011394   -1.075876
      3          9           0       -3.222086    0.046202    1.085707
      4          9           0       -2.358272   -1.635689    0.031161
      5          6           0       -1.175404    0.404674   -0.003113
      6          6           0        0.010814   -0.261219    0.009169
      7          6           0        1.224343    0.512251   -0.005965
      8          8           0        1.264450    1.741501   -0.019374
      9          6           0        2.552013   -0.281011    0.000340
     10          9           0        2.583259   -1.107638    1.055273
     11          9           0        2.634046   -1.031102   -1.107350
     12          9           0        3.600556    0.522513    0.052912
     13          1           0        0.036081   -1.339391    0.029130
     14          8           0       -1.305389    1.711678   -0.026680
     15          1           0       -0.379513    2.083511   -0.033658
 ---------------------------------------------------------------------
                    Distance matrix (angstroms):
                    1          2          3          4          5
     1  C    0.000000
     2  F    1.333980   0.000000
     3  F    1.334204   2.161864   0.000000
     4  F    1.334240   2.165310   2.164948   0.000000
     5  C    1.522724   2.346022   2.345834   2.358693   0.000000
     6  C    2.530521   3.423180   3.421270   2.739018   1.360396
     7  C    3.833116   4.602908   4.602139   4.177339   2.402159
     8  O    4.304787   4.925355   4.921814   4.952987   2.782132
     9  C    5.071322   5.883072   5.884327   5.093820   3.789962
    10  F    5.269048   6.286714   5.918979   5.074089   4.187460
    11  F    5.321789   5.950548   6.345421   5.156062   4.218140
    12  F    6.176469   6.936515   6.916790   6.337660   4.777742
    13  H    2.754402   3.698149   3.694845   2.412618   2.123793
    14  O    2.359531   2.770258   2.772173   3.509526   1.313663
    15  H    3.211792   3.670585   3.672033   4.213328   1.858189
                    6          7          8          9         10
     6  C    0.000000
     7  C    1.439145   0.000000
     8  O    2.362902   1.229976   0.000000
     9  C    2.541291   1.546613   2.397657   0.000000
    10  F    2.903142   2.365781   3.318390   1.340586   0.000000
    11  F    2.953080   2.362678   3.278232   1.340277   2.164572
    12  F    3.674560   2.376964   2.636009   1.322065   2.167258
    13  H    1.078653   2.200403   3.317097   2.729635   2.755865
    14  O    2.371918   2.799749   2.570022   4.341784   4.923489
    15  H    2.377382   2.245434   1.679223   3.766426   4.488565
                   11         12         13         14         15
    11  F    0.000000
    12  F    2.166579   0.000000
    13  H    2.852376   4.021533   0.000000
    14  O    4.920349   5.048637   3.333418   0.000000
    15  H    4.464881   4.276114   3.448610   0.997775   0.000000
 Stoichiometry    C5H2F6O2
 Framework group  C1[X(C5H2F6O2)]
 Deg. of freedom    39
 Full point group                 C1      NOp   1
 Largest Abelian subgroup         C1      NOp   1
 Largest concise Abelian subgroup C1      NOp   1
                         Standard orientation:                         
 ---------------------------------------------------------------------
 Center     Atomic      Atomic             Coordinates (Angstroms)
 Number     Number       Type             X           Y           Z
 ---------------------------------------------------------------------
      1          6           0        2.519234   -0.311497    0.000137
      2          9           0        3.222487    0.027015    1.081963
      3          9           0        3.224041    0.030368   -1.079898
      4          9           0        2.358287   -1.635992   -0.002534
      5          6           0        1.175434    0.404667   -0.000061
      6          6           0       -0.010784   -0.261322   -0.004767
      7          6           0       -1.224310    0.512300   -0.003053
      8          8           0       -1.264396    1.741615   -0.007603
      9          6           0       -2.551995   -0.280956   -0.000184
     10          9           0       -2.581392   -1.122844   -1.043031
     11          9           0       -2.636031   -1.014849    1.118155
     12          9           0       -3.600414    0.521729   -0.066311
     13          1           0       -0.036056   -1.339670   -0.009084
     14          8           0        1.305425    1.711874    0.004719
     15          1           0        0.379551    2.083778    0.004634
 ---------------------------------------------------------------------
 Rotational constants (GHZ):           1.6957976           0.3782581           0.3470339
 Standard basis: GTBas3 (6D, 7F)
 There are   413 symmetry adapted cartesian basis functions of A   symmetry.
 There are   374 symmetry adapted basis functions of A   symmetry.
   374 basis functions,   586 primitive gaussians,   413 cartesian basis functions
    51 alpha electrons       51 beta electrons
       nuclear repulsion energy       884.7638642431 Hartrees.
 NAtoms=   15 NActive=   15 NUniq=   15 SFac= 1.00D+00 NAtFMM=   60 NAOKFM=F Big=F
 Integral buffers will be    131072 words long.
 Raffenetti 2 integral format.
 Two-electron integral symmetry is turned on.
 One-electron integrals computed using PRISM.
 NBasis=   374 RedAO= T EigKep=  3.12D-04  NBF=   374
 NBsUse=   374 1.00D-06 EigRej= -1.00D+00 NBFU=   374
 Initial guess from the checkpoint file:  "/home/artemiy/opt/gaussian/scr/Gau-1831.chk"
 B after Tr=     0.000000   -0.000000   -0.000000
         Rot=    0.999999    0.001072    0.000219    0.000025 Ang=   0.13 deg.
 ExpMin= 1.61D-01 ExpMax= 7.00D+03 ExpMxC= 1.05D+03 IAcc=2 IRadAn=         4 AccDes= 0.00D+00
 Harris functional with IExCor=  402 and IRadAn=       4 diagonalized for initial guess.
 HarFok:  IExCor=  402 AccDes= 0.00D+00 IRadAn=         4 IDoV= 1 UseB2=F ITyADJ=14
 ICtDFT=  3500011 ScaDFX=  1.000000  1.000000  1.000000  1.000000
 FoFCou: FMM=F IPFlag=           0 FMFlag=      100000 FMFlg1=           0
         NFxFlg=           0 DoJE=T BraDBF=F KetDBF=T FulRan=T
         wScrn=  0.000000 ICntrl=       500 IOpCl=  0 I1Cent=   200000004 NGrid=           0
         NMat0=    1 NMatS0=      1 NMatT0=    0 NMatD0=    1 NMtDS0=    0 NMtDT0=    0
 Petite list used in FoFCou.
 Requested convergence on RMS density matrix=1.00D-08 within 128 cycles.
 Requested convergence on MAX density matrix=1.00D-06.
 Requested convergence on             energy=1.00D-06.
 No special actions if energy rises.
 Integral accuracy reduced to 1.0D-05 until final iterations.
 Initial convergence to 1.0D-05 achieved.  Increase integral accuracy.
 SCF Done:  E(RB3LYP) =  -941.274132100     A.U. after    9 cycles
            NFock=  9  Conv=0.70D-08     -V/T= 2.0058
 Calling FoFJK, ICntrl=      2127 FMM=F ISym2X=0 I1Cent= 0 IOpClX= 0 NMat=1 NMatS=1 NMatT=0.
 ***** Axes restored to original set *****
 -------------------------------------------------------------------
 Center     Atomic                   Forces (Hartrees/Bohr)
 Number     Number              X              Y              Z
 -------------------------------------------------------------------
      1        6          -0.000037337   -0.000058162    0.000198721
      2        9           0.000020895   -0.000006418   -0.000024492
      3        9           0.000000481    0.000041671   -0.000039217
      4        9           0.000013053   -0.000004114   -0.000064551
      5        6          -0.000039836    0.000104721   -0.000104365
      6        6           0.000014599   -0.000032169   -0.000361120
      7        6           0.000005853    0.000012150    0.001191546
      8        8          -0.000014619    0.000024120   -0.000589976
      9        6           0.000230387   -0.000371377   -0.000159765
     10        9          -0.000083433    0.000206605   -0.000076688
     11        9          -0.000068635    0.000003172   -0.000134882
     12        9          -0.000081533    0.000115064    0.000058960
     13        1           0.000004065   -0.000000481   -0.000013216
     14        8           0.000004419   -0.000082439   -0.000066525
     15        1           0.000031642    0.000047657    0.000185570
 -------------------------------------------------------------------
 Cartesian Forces:  Max     0.001191546 RMS     0.000228248

 GradGradGradGradGradGradGradGradGradGradGradGradGradGradGradGradGradGrad
 Berny optimization.
 Using GEDIIS/GDIIS optimizer.
 FormGI is forming the generalized inverse of G from B-inverse, IUseBI=4.
 Internal  Forces:  Max     0.000302547 RMS     0.000112991
 Search for a local minimum.
 Step number   2 out of a maximum of   68
 All quantities printed in internal units (Hartrees-Bohrs-Radians)
 Mixed Optimization -- En-DIIS/RFO-DIIS
 Swapping is turned off.
 Update second derivatives using D2CorX and points    1    2
 DE=  1.20D-06 DEPred=-5.04D-06 R=-2.37D-01
 Trust test=-2.37D-01 RLast= 2.70D-02 DXMaxT set to 1.50D-01
 ITU= -1  0
     Eigenvalues ---    0.00201   0.00462   0.01429   0.01660   0.02039
     Eigenvalues ---    0.02146   0.02717   0.03775   0.10727   0.11004
     Eigenvalues ---    0.11132   0.11431   0.15998   0.16024   0.21992
     Eigenvalues ---    0.24729   0.25000   0.25000   0.25000   0.25000
     Eigenvalues ---    0.25000   0.25000   0.25000   0.25000   0.26253
     Eigenvalues ---    0.27913   0.30105   0.35828   0.39643   0.42589
     Eigenvalues ---    0.48160   0.52871   0.57263   0.58367   0.58481
     Eigenvalues ---    0.58593   0.60647   0.63324   0.90929
 En-DIIS/RFO-DIIS/Sim-DIIS IScMMF=       -3 using points:     2    1
 RFO step:  Lambda=-1.41937759D-05.
 DidBck=T Rises=T En-DIIS coefs:    0.47345    0.52655
 Iteration  1 RMS(Cart)=  0.00345915 RMS(Int)=  0.00001254
 Iteration  2 RMS(Cart)=  0.00001800 RMS(Int)=  0.00000313
 Iteration  3 RMS(Cart)=  0.00000000 RMS(Int)=  0.00000313
 Variable       Old X    -DE/DX   Delta X   Delta X   Delta X     New X
                                 (Linear)    (Quad)   (Total)
    R1        2.52086   0.00001  -0.00011   0.00026   0.00015   2.52101
    R2        2.52128  -0.00002   0.00028  -0.00068  -0.00040   2.52088
    R3        2.52135   0.00000   0.00014  -0.00033  -0.00019   2.52116
    R4        2.87753   0.00002   0.00003  -0.00006  -0.00002   2.87751
    R5        2.57078   0.00003   0.00001  -0.00000   0.00001   2.57078
    R6        2.48246  -0.00004   0.00026  -0.00065  -0.00039   2.48207
    R7        2.71959  -0.00002   0.00004  -0.00012  -0.00008   2.71951
    R8        2.03836   0.00000   0.00020  -0.00047  -0.00027   2.03809
    R9        2.32432   0.00003   0.00012  -0.00027  -0.00015   2.32417
   R10        2.92268   0.00002   0.00012  -0.00025  -0.00013   2.92254
   R11        2.53334  -0.00019   0.00098  -0.00248  -0.00150   2.53184
   R12        2.53276   0.00011   0.00084  -0.00192  -0.00108   2.53168
   R13        2.49834   0.00001   0.00061  -0.00145  -0.00084   2.49750
   R14        1.88552   0.00005  -0.00005   0.00016   0.00011   1.88563
    A1        1.88912   0.00001  -0.00002   0.00003   0.00002   1.88913
    A2        1.89349  -0.00002  -0.00024   0.00045   0.00021   1.89370
    A3        1.92410  -0.00005  -0.00025   0.00045   0.00019   1.92429
    A4        1.89279   0.00007   0.00040  -0.00073  -0.00032   1.89247
    A5        1.92365   0.00001   0.00007  -0.00011  -0.00004   1.92361
    A6        1.93952  -0.00001   0.00004  -0.00010  -0.00006   1.93947
    A7        2.14036  -0.00002  -0.00002   0.00002  -0.00001   2.14035
    A8        1.96133   0.00002   0.00001   0.00002   0.00003   1.96135
    A9        2.18150  -0.00000   0.00001  -0.00003  -0.00002   2.18148
   A10        2.06246  -0.00004   0.00000  -0.00008  -0.00008   2.06238
   A11        2.10582   0.00002  -0.00003   0.00012   0.00009   2.10591
   A12        2.11490   0.00002   0.00003  -0.00003  -0.00001   2.11489
   A13        2.17092  -0.00003  -0.00002  -0.00001  -0.00004   2.17087
   A14        2.03550   0.00003  -0.00010   0.00029   0.00018   2.03568
   A15        2.07676   0.00000   0.00011  -0.00026  -0.00016   2.07660
   A16        1.91716  -0.00015  -0.00062   0.00118   0.00056   1.91772
   A17        1.91370  -0.00008  -0.00014   0.00027   0.00012   1.91382
   A18        1.94901  -0.00021  -0.00044   0.00061   0.00017   1.94918
   A19        1.87952   0.00019   0.00068  -0.00117  -0.00049   1.87903
   A20        1.90180   0.00011  -0.00001   0.00009   0.00008   1.90187
   A21        1.90124   0.00016   0.00058  -0.00106  -0.00048   1.90076
   A22        1.85363   0.00006   0.00009  -0.00005   0.00004   1.85367
    D1       -2.10183  -0.00000  -0.00066   0.00146   0.00080  -2.10104
    D2        1.03980   0.00004  -0.00045   0.00223   0.00177   1.04157
    D3        2.09700   0.00001  -0.00052   0.00120   0.00068   2.09768
    D4       -1.04456   0.00006  -0.00032   0.00197   0.00166  -1.04290
    D5       -0.00183  -0.00007  -0.00110   0.00225   0.00115  -0.00068
    D6        3.13980  -0.00002  -0.00090   0.00302   0.00213  -3.14126
    D7        3.14045  -0.00009  -0.00054  -0.00002  -0.00056   3.13989
    D8       -0.00054  -0.00007  -0.00012  -0.00062  -0.00074  -0.00128
    D9       -0.00118  -0.00014  -0.00077  -0.00089  -0.00166  -0.00285
   D10        3.14101  -0.00012  -0.00035  -0.00150  -0.00184   3.13917
   D11       -3.14110  -0.00019  -0.00049  -0.00216  -0.00264   3.13944
   D12        0.00053  -0.00014  -0.00028  -0.00136  -0.00164  -0.00111
   D13        0.00986  -0.00028  -0.00360  -0.00486  -0.00846   0.00140
   D14       -3.13555   0.00011   0.00261   0.00201   0.00462  -3.13093
   D15       -3.13234  -0.00030  -0.00402  -0.00426  -0.00828  -3.14062
   D16        0.00544   0.00009   0.00219   0.00261   0.00480   0.01024
   D17       -0.97458  -0.00024  -0.00739   0.00872   0.00133  -0.97324
   D18        1.08760  -0.00015  -0.00701   0.00816   0.00115   1.08875
   D19       -3.08660  -0.00014  -0.00667   0.00740   0.00074  -3.08587
   D20        2.16341   0.00013  -0.00153   0.01520   0.01367   2.17709
   D21       -2.05760   0.00022  -0.00115   0.01464   0.01349  -2.04411
   D22        0.05139   0.00023  -0.00080   0.01388   0.01308   0.06447
         Item               Value     Threshold  Converged?
 Maximum Force            0.000303     0.000450     YES
 RMS     Force            0.000113     0.000300     YES
 Maximum Displacement     0.012910     0.001800     NO 
 RMS     Displacement     0.003458     0.001200     NO 
 Predicted change in Energy=-7.099064D-06
 GradGradGradGradGradGradGradGradGradGradGradGradGradGradGradGradGradGrad

                          Input orientation:                          
 ---------------------------------------------------------------------
 Center     Atomic      Atomic             Coordinates (Angstroms)
 Number     Number       Type             X           Y           Z
 ---------------------------------------------------------------------
      1          6           0       -2.519283   -0.311259    0.008651
      2          9           0       -3.222582    0.009624   -1.078603
      3          9           0       -3.223998    0.047990    1.082824
      4          9           0       -2.358408   -1.635436    0.033233
      5          6           0       -1.175421    0.404676   -0.002559
      6          6           0        0.010730   -0.261292    0.012193
      7          6           0        1.224242    0.512138   -0.002499
      8          8           0        1.264289    1.741153   -0.026206
      9          6           0        2.551963   -0.280924    0.000248
     10          9           0        2.584538   -1.111096    1.051342
     11          9           0        2.633525   -1.026918   -1.109552
     12          9           0        3.600227    0.522127    0.054417
     13          1           0        0.035979   -1.339288    0.033896
     14          8           0       -1.305228    1.711485   -0.026371
     15          1           0       -0.379272    2.083325   -0.029835
 ---------------------------------------------------------------------
                    Distance matrix (angstroms):
                    1          2          3          4          5
     1  C    0.000000
     2  F    1.334059   0.000000
     3  F    1.333991   2.161768   0.000000
     4  F    1.334140   2.165455   2.164442   0.000000
     5  C    1.522712   2.346231   2.345623   2.358558   0.000000
     6  C    2.530509   3.423089   3.421312   2.738892   1.360400
     7  C    3.833026   4.602691   4.602195   4.177168   2.402069
     8  O    4.304535   4.923184   4.923562   4.952658   2.781891
     9  C    5.071344   5.881641   5.885735   5.093873   3.789914
    10  F    5.270288   6.286121   5.923138   5.073874   4.188743
    11  F    5.321088   5.947214   6.346063   5.157097   4.216985
    12  F    6.176166   6.935208   6.917548   6.337260   4.777432
    13  H    2.754423   3.698031   3.694894   2.412632   2.123730
    14  O    2.359375   2.771240   2.771138   3.509219   1.313456
    15  H    3.211722   3.672133   3.670567   4.213091   1.858079
                    6          7          8          9         10
     6  C    0.000000
     7  C    1.439104   0.000000
     8  O    2.362767   1.229896   0.000000
     9  C    2.541337   1.546543   2.397415   0.000000
    10  F    2.902841   2.365560   3.322572   1.339793   0.000000
    11  F    2.953565   2.362273   3.272714   1.339707   2.163087
    12  F    3.674237   2.376687   2.636120   1.321621   2.166310
    13  H    1.078510   2.200244   3.316847   2.729733   2.753620
    14  O    2.371726   2.799505   2.569689   4.341466   4.925314
    15  H    2.377204   2.245136   1.678806   3.765995   4.489704
                   11         12         13         14         15
    11  F    0.000000
    12  F    2.165382   0.000000
    13  H    2.855222   4.021088   0.000000
    14  O    4.917918   5.048226   3.333120   0.000000
    15  H    4.462774   4.275611   3.448300   0.997833   0.000000
 Stoichiometry    C5H2F6O2
 Framework group  C1[X(C5H2F6O2)]
 Deg. of freedom    39
 Full point group                 C1      NOp   1
 Largest Abelian subgroup         C1      NOp   1
 Largest concise Abelian subgroup C1      NOp   1
                         Standard orientation:                         
 ---------------------------------------------------------------------
 Center     Atomic      Atomic             Coordinates (Angstroms)
 Number     Number       Type             X           Y           Z
 ---------------------------------------------------------------------
      1          6           0        2.519300   -0.311444    0.000786
      2          9           0        3.220608    0.026677    1.084094
      3          9           0        3.226017    0.030650   -1.077663
      4          9           0        2.358397   -1.635841   -0.003022
      5          6           0        1.175460    0.404614   -0.001879
      6          6           0       -0.010699   -0.261473   -0.008224
      7          6           0       -1.224193    0.512125   -0.008081
      8          8           0       -1.264215    1.741362   -0.004005
      9          6           0       -2.551951   -0.280845   -0.000663
     10          9           0       -2.582632   -1.127634   -1.038474
     11          9           0       -2.635604   -1.009085    1.120713
     12          9           0       -3.600068    0.521271   -0.069538
     13          1           0       -0.035968   -1.339677   -0.012821
     14          8           0        1.305296    1.711633    0.001378
     15          1           0        0.379356    2.083505   -0.002784
 ---------------------------------------------------------------------
 Rotational constants (GHZ):           1.6965555           0.3782659           0.3470404
 Standard basis: GTBas3 (6D, 7F)
 There are   413 symmetry adapted cartesian basis functions of A   symmetry.
 There are   374 symmetry adapted basis functions of A   symmetry.
   374 basis functions,   586 primitive gaussians,   413 cartesian basis functions
    51 alpha electrons       51 beta electrons
       nuclear repulsion energy       884.8622293769 Hartrees.
 NAtoms=   15 NActive=   15 NUniq=   15 SFac= 1.00D+00 NAtFMM=   60 NAOKFM=F Big=F
 Integral buffers will be    131072 words long.
 Raffenetti 2 integral format.
 Two-electron integral symmetry is turned on.
 One-electron integrals computed using PRISM.
 NBasis=   374 RedAO= T EigKep=  3.12D-04  NBF=   374
 NBsUse=   374 1.00D-06 EigRej= -1.00D+00 NBFU=   374
 Initial guess from the checkpoint file:  "/home/artemiy/opt/gaussian/scr/Gau-1831.chk"
 B after Tr=    -0.000000    0.000000   -0.000000
         Rot=    1.000000    0.000661    0.000034    0.000013 Ang=   0.08 deg.
 Requested convergence on RMS density matrix=1.00D-08 within 128 cycles.
 Requested convergence on MAX density matrix=1.00D-06.
 Requested convergence on             energy=1.00D-06.
 No special actions if energy rises.
 SCF Done:  E(RB3LYP) =  -941.274135518     A.U. after    9 cycles
            NFock=  9  Conv=0.38D-08     -V/T= 2.0058
 Calling FoFJK, ICntrl=      2127 FMM=F ISym2X=0 I1Cent= 0 IOpClX= 0 NMat=1 NMatS=1 NMatT=0.
 ***** Axes restored to original set *****
 -------------------------------------------------------------------
 Center     Atomic                   Forces (Hartrees/Bohr)
 Number     Number              X              Y              Z
 -------------------------------------------------------------------
      1        6          -0.000009728   -0.000062846    0.000105868
      2        9           0.000060131   -0.000029175   -0.000001477
      3        9          -0.000095417    0.000142664    0.000091474
      4        9           0.000032330   -0.000111012   -0.000149560
      5        6          -0.000041288   -0.000028513   -0.000032138
      6        6           0.000026487    0.000035945    0.000104841
      7        6          -0.000019692   -0.000104129   -0.000326181
      8        8          -0.000014224    0.000215738    0.000199936
      9        6           0.000052646   -0.000221326    0.000040580
     10        9          -0.000103044   -0.000210081    0.000575902
     11        9          -0.000184852   -0.000199717   -0.000668157
     12        9           0.000274402    0.000529669    0.000119721
     13        1           0.000001226   -0.000098854    0.000032704
     14        8          -0.000005242    0.000101463    0.000053040
     15        1           0.000026264    0.000040174   -0.000146554
 -------------------------------------------------------------------
 Cartesian Forces:  Max     0.000668157 RMS     0.000193931

 GradGradGradGradGradGradGradGradGradGradGradGradGradGradGradGradGradGrad
 Berny optimization.
 Using GEDIIS/GDIIS optimizer.
 FormGI is forming the generalized inverse of G from B-inverse, IUseBI=4.
 Internal  Forces:  Max     0.000653190 RMS     0.000186650
 Search for a local minimum.
 Step number   3 out of a maximum of   68
 All quantities printed in internal units (Hartrees-Bohrs-Radians)
 Mixed Optimization -- En-DIIS/RFO-DIIS
 Swapping is turned off.
 Update second derivatives using D2CorX and points    1    2    3
 DE= -3.42D-06 DEPred=-7.10D-06 R= 4.82D-01
 Trust test= 4.82D-01 RLast= 2.76D-02 DXMaxT set to 1.50D-01
 ITU=  0 -1  0
     Eigenvalues ---    0.00152   0.00462   0.01397   0.01660   0.02056
     Eigenvalues ---    0.02171   0.02719   0.05928   0.10648   0.11040
     Eigenvalues ---    0.11133   0.11745   0.15996   0.16019   0.21980
     Eigenvalues ---    0.24585   0.24999   0.25000   0.25000   0.25000
     Eigenvalues ---    0.25000   0.25000   0.25000   0.25107   0.27798
     Eigenvalues ---    0.29131   0.30134   0.36267   0.39688   0.47814
     Eigenvalues ---    0.52617   0.54377   0.58354   0.58416   0.58574
     Eigenvalues ---    0.59146   0.63195   0.65613   0.91681
 En-DIIS/RFO-DIIS/Sim-DIIS IScMMF=       -3 using points:     3    2    1
 RFO step:  Lambda=-5.19004029D-06.
 DidBck=F Rises=F RFO-DIIS coefs:    1.03760    0.20487   -0.24247
 Iteration  1 RMS(Cart)=  0.00240754 RMS(Int)=  0.00000346
 Iteration  2 RMS(Cart)=  0.00000365 RMS(Int)=  0.00000104
 Iteration  3 RMS(Cart)=  0.00000000 RMS(Int)=  0.00000104
 Variable       Old X    -DE/DX   Delta X   Delta X   Delta X     New X
                                 (Linear)    (Quad)   (Total)
    R1        2.52101  -0.00004   0.00005  -0.00011  -0.00005   2.52095
    R2        2.52088   0.00016  -0.00014   0.00033   0.00018   2.52106
    R3        2.52116   0.00011  -0.00007   0.00018   0.00011   2.52127
    R4        2.87751   0.00004  -0.00002   0.00008   0.00006   2.87757
    R5        2.57078   0.00005  -0.00000   0.00005   0.00004   2.57083
    R6        2.48207   0.00014  -0.00014   0.00029   0.00016   2.48223
    R7        2.71951   0.00001  -0.00002   0.00004   0.00002   2.71953
    R8        2.03809   0.00010  -0.00010   0.00026   0.00016   2.03825
    R9        2.32417   0.00021  -0.00006   0.00019   0.00012   2.32429
   R10        2.92254   0.00009  -0.00006   0.00021   0.00015   2.92270
   R11        2.53184   0.00058  -0.00051   0.00116   0.00065   2.53249
   R12        2.53168   0.00065  -0.00043   0.00111   0.00068   2.53236
   R13        2.49750   0.00054  -0.00031   0.00083   0.00051   2.49802
   R14        1.88563   0.00004   0.00003  -0.00001   0.00002   1.88565
    A1        1.88913   0.00002   0.00001  -0.00003  -0.00002   1.88911
    A2        1.89370  -0.00005   0.00012  -0.00044  -0.00032   1.89338
    A3        1.92429  -0.00009   0.00012  -0.00046  -0.00033   1.92396
    A4        1.89247   0.00014  -0.00020   0.00076   0.00056   1.89303
    A5        1.92361  -0.00002  -0.00003   0.00012   0.00008   1.92369
    A6        1.93947  -0.00000  -0.00002   0.00006   0.00003   1.93950
    A7        2.14035  -0.00003   0.00001  -0.00007  -0.00006   2.14029
    A8        1.96135   0.00003  -0.00000   0.00006   0.00005   1.96141
    A9        2.18148   0.00000  -0.00001   0.00001   0.00001   2.18149
   A10        2.06238  -0.00003  -0.00000  -0.00005  -0.00006   2.06233
   A11        2.10591   0.00001   0.00002   0.00000   0.00002   2.10593
   A12        2.11489   0.00002  -0.00001   0.00005   0.00004   2.11493
   A13        2.17087  -0.00002   0.00001  -0.00006  -0.00005   2.17083
   A14        2.03568  -0.00000   0.00005  -0.00008  -0.00002   2.03566
   A15        2.07660   0.00003  -0.00006   0.00013   0.00008   2.07667
   A16        1.91772  -0.00018   0.00031  -0.00077  -0.00046   1.91726
   A17        1.91382  -0.00037   0.00007  -0.00061  -0.00054   1.91329
   A18        1.94918  -0.00035   0.00021  -0.00101  -0.00080   1.94839
   A19        1.87903   0.00039  -0.00033   0.00135   0.00101   1.88005
   A20        1.90187   0.00019   0.00001   0.00016   0.00016   1.90204
   A21        1.90076   0.00035  -0.00028   0.00098   0.00070   1.90146
   A22        1.85367   0.00006  -0.00004   0.00021   0.00018   1.85384
    D1       -2.10104   0.00004   0.00033  -0.00019   0.00014  -2.10089
    D2        1.04157   0.00001   0.00028  -0.00073  -0.00045   1.04112
    D3        2.09768   0.00008   0.00027   0.00006   0.00033   2.09801
    D4       -1.04290   0.00005   0.00021  -0.00047  -0.00026  -1.04316
    D5       -0.00068  -0.00008   0.00055  -0.00100  -0.00045  -0.00114
    D6       -3.14126  -0.00012   0.00049  -0.00154  -0.00105   3.14088
    D7        3.13989   0.00008   0.00023   0.00054   0.00077   3.14066
    D8       -0.00128   0.00006   0.00003   0.00053   0.00055  -0.00073
    D9       -0.00285   0.00012   0.00029   0.00114   0.00144  -0.00141
   D10        3.13917   0.00010   0.00009   0.00113   0.00122   3.14039
   D11        3.13944   0.00015   0.00013   0.00161   0.00173   3.14117
   D12       -0.00111   0.00011   0.00007   0.00106   0.00113   0.00002
   D13        0.00140   0.00014   0.00134   0.00118   0.00251   0.00391
   D14       -3.13093   0.00003  -0.00103   0.00196   0.00093  -3.13000
   D15       -3.14062   0.00016   0.00154   0.00119   0.00273  -3.13789
   D16        0.01024   0.00005  -0.00083   0.00197   0.00115   0.01138
   D17       -0.97324  -0.00001   0.00345  -0.00071   0.00275  -0.97050
   D18        1.08875   0.00013   0.00327   0.00011   0.00338   1.09213
   D19       -3.08587   0.00010   0.00310   0.00028   0.00338  -3.08249
   D20        2.17709  -0.00012   0.00122   0.00004   0.00125   2.17834
   D21       -2.04411   0.00003   0.00104   0.00086   0.00189  -2.04221
   D22        0.06447  -0.00001   0.00086   0.00103   0.00189   0.06635
         Item               Value     Threshold  Converged?
 Maximum Force            0.000653     0.000450     NO 
 RMS     Force            0.000187     0.000300     YES
 Maximum Displacement     0.007993     0.001800     NO 
 RMS     Displacement     0.002408     0.001200     NO 
 Predicted change in Energy=-2.583383D-06
 GradGradGradGradGradGradGradGradGradGradGradGradGradGradGradGradGradGrad

                          Input orientation:                          
 ---------------------------------------------------------------------
 Center     Atomic      Atomic             Coordinates (Angstroms)
 Number     Number       Type             X           Y           Z
 ---------------------------------------------------------------------
      1          6           0       -2.519239   -0.311308    0.009616
      2          9           0       -3.222316    0.008576   -1.078040
      3          9           0       -3.224051    0.049333    1.083379
      4          9           0       -2.358420   -1.635537    0.034976
      5          6           0       -1.175338    0.404608   -0.002583
      6          6           0        0.010786   -0.261448    0.012641
      7          6           0        1.224320    0.511967   -0.002102
      8          8           0        1.264334    1.741088   -0.023700
      9          6           0        2.552078   -0.281192   -0.000098
     10          9           0        2.582917   -1.114297    1.049166
     11          9           0        2.634582   -1.023446   -1.112769
     12          9           0        3.599865    0.522635    0.058260
     13          1           0        0.035979   -1.339518    0.034944
     14          8           0       -1.305064    1.711469   -0.028444
     15          1           0       -0.379133    2.083375   -0.034064
 ---------------------------------------------------------------------
                    Distance matrix (angstroms):
                    1          2          3          4          5
     1  C    0.000000
     2  F    1.334031   0.000000
     3  F    1.334088   2.161805   0.000000
     4  F    1.334200   2.165232   2.165007   0.000000
     5  C    1.522746   2.345968   2.345797   2.358662   0.000000
     6  C    2.530518   3.422783   3.421584   2.738933   1.360423
     7  C    3.833034   4.602566   4.602206   4.177221   2.402058
     8  O    4.304516   4.923744   4.922729   4.952715   2.781838
     9  C    5.071415   5.881288   5.886156   5.093964   3.789981
    10  F    5.268534   6.283834   5.922507   5.071201   4.187807
    11  F    5.322476   5.947228   6.348031   5.159655   4.217504
    12  F    6.175861   6.935242   6.916698   6.337145   4.777048
    13  H    2.754450   3.697645   3.695392   2.412628   2.123834
    14  O    2.359512   2.770803   2.771527   3.509421   1.313539
    15  H    3.211926   3.671290   3.671453   4.213390   1.858277
                    6          7          8          9         10
     6  C    0.000000
     7  C    1.439115   0.000000
     8  O    2.362806   1.229961   0.000000
     9  C    2.541400   1.546625   2.397594   0.000000
    10  F    2.901309   2.365520   3.323090   1.340138   0.000000
    11  F    2.954910   2.362184   3.272048   1.340069   2.164459
    12  F    3.674011   2.376336   2.635536   1.321893   2.166939
    13  H    1.078595   2.200346   3.316991   2.729841   2.750684
    14  O    2.371824   2.799514   2.569573   4.341548   4.925707
    15  H    2.377481   2.245307   1.678764   3.766209   4.491351
                   11         12         13         14         15
    11  F    0.000000
    12  F    2.166436   0.000000
    13  H    2.858301   4.021124   0.000000
    14  O    4.916943   5.047689   3.333307   0.000000
    15  H    4.460764   4.275144   3.448663   0.997845   0.000000
 Stoichiometry    C5H2F6O2
 Framework group  C1[X(C5H2F6O2)]
 Deg. of freedom    39
 Full point group                 C1      NOp   1
 Largest Abelian subgroup         C1      NOp   1
 Largest concise Abelian subgroup C1      NOp   1
                         Standard orientation:                         
 ---------------------------------------------------------------------
 Center     Atomic      Atomic             Coordinates (Angstroms)
 Number     Number       Type             X           Y           Z
 ---------------------------------------------------------------------
      1          6           0        2.519247   -0.311426    0.000349
      2          9           0        3.220182    0.025771    1.084151
      3          9           0        3.226180    0.032064   -1.077637
      4          9           0        2.358463   -1.635895   -0.004213
      5          6           0        1.175334    0.404567   -0.001517
      6          6           0       -0.010766   -0.261669   -0.008459
      7          6           0       -1.224317    0.511859   -0.008441
      8          8           0       -1.264358    1.741167   -0.006521
      9          6           0       -2.552078   -0.281257   -0.000417
     10          9           0       -2.580859   -1.130985   -1.036324
     11          9           0       -2.636785   -1.005678    1.123781
     12          9           0       -3.599738    0.521518   -0.073649
     13          1           0       -0.035928   -1.339959   -0.013621
     14          8           0        1.305024    1.711677    0.003761
     15          1           0        0.379089    2.083608    0.001625
 ---------------------------------------------------------------------
 Rotational constants (GHZ):           1.6961295           0.3782853           0.3470673
 Standard basis: GTBas3 (6D, 7F)
 There are   413 symmetry adapted cartesian basis functions of A   symmetry.
 There are   374 symmetry adapted basis functions of A   symmetry.
   374 basis functions,   586 primitive gaussians,   413 cartesian basis functions
    51 alpha electrons       51 beta electrons
       nuclear repulsion energy       884.8198004860 Hartrees.
 NAtoms=   15 NActive=   15 NUniq=   15 SFac= 1.00D+00 NAtFMM=   60 NAOKFM=F Big=F
 Integral buffers will be    131072 words long.
 Raffenetti 2 integral format.
 Two-electron integral symmetry is turned on.
 One-electron integrals computed using PRISM.
 NBasis=   374 RedAO= T EigKep=  3.12D-04  NBF=   374
 NBsUse=   374 1.00D-06 EigRej= -1.00D+00 NBFU=   374
 Initial guess from the checkpoint file:  "/home/artemiy/opt/gaussian/scr/Gau-1831.chk"
 B after Tr=     0.000000    0.000000    0.000000
         Rot=    1.000000    0.000293    0.000054   -0.000019 Ang=   0.03 deg.
 Requested convergence on RMS density matrix=1.00D-08 within 128 cycles.
 Requested convergence on MAX density matrix=1.00D-06.
 Requested convergence on             energy=1.00D-06.
 No special actions if energy rises.
 SCF Done:  E(RB3LYP) =  -941.274138472     A.U. after    8 cycles
            NFock=  8  Conv=0.27D-08     -V/T= 2.0058
 Calling FoFJK, ICntrl=      2127 FMM=F ISym2X=0 I1Cent= 0 IOpClX= 0 NMat=1 NMatS=1 NMatT=0.
 ***** Axes restored to original set *****
 -------------------------------------------------------------------
 Center     Atomic                   Forces (Hartrees/Bohr)
 Number     Number              X              Y              Z
 -------------------------------------------------------------------
      1        6           0.000007413   -0.000014225    0.000043654
      2        9          -0.000000178   -0.000003085   -0.000023057
      3        9          -0.000023451    0.000031452    0.000020583
      4        9           0.000004615   -0.000034510   -0.000034514
      5        6          -0.000012230    0.000009100   -0.000047748
      6        6           0.000006857    0.000020693    0.000052032
      7        6          -0.000042095   -0.000054793   -0.000124327
      8        8           0.000004452    0.000099179   -0.000016563
      9        6          -0.000065994   -0.000037805    0.000081784
     10        9           0.000011101   -0.000117375    0.000159300
     11        9          -0.000043366   -0.000066803   -0.000219174
     12        9           0.000156594    0.000176163    0.000040010
     13        1          -0.000000432   -0.000036192    0.000033879
     14        8          -0.000026876    0.000026748   -0.000000775
     15        1           0.000023591    0.000001450    0.000034915
 -------------------------------------------------------------------
 Cartesian Forces:  Max     0.000219174 RMS     0.000068652

 GradGradGradGradGradGradGradGradGradGradGradGradGradGradGradGradGradGrad
 Berny optimization.
 Using GEDIIS/GDIIS optimizer.
 FormGI is forming the generalized inverse of G from B-inverse, IUseBI=4.
 Internal  Forces:  Max     0.000233206 RMS     0.000060667
 Search for a local minimum.
 Step number   4 out of a maximum of   68
 All quantities printed in internal units (Hartrees-Bohrs-Radians)
 Mixed Optimization -- En-DIIS/RFO-DIIS
 Swapping is turned off.
 Update second derivatives using D2CorX and points    1    2    3    4
 DE= -2.95D-06 DEPred=-2.58D-06 R= 1.14D+00
 TightC=F SS=  1.41D+00  RLast= 8.37D-03 DXNew= 2.5227D-01 2.5113D-02
 Trust test= 1.14D+00 RLast= 8.37D-03 DXMaxT set to 1.50D-01
 ITU=  1  0 -1  0
     Eigenvalues ---    0.00093   0.00463   0.01524   0.01667   0.02091
     Eigenvalues ---    0.02253   0.02732   0.07203   0.10626   0.11039
     Eigenvalues ---    0.11136   0.11766   0.15999   0.16105   0.22005
     Eigenvalues ---    0.24252   0.24984   0.24999   0.25000   0.25000
     Eigenvalues ---    0.25000   0.25000   0.25000   0.25012   0.27844
     Eigenvalues ---    0.30095   0.31667   0.36119   0.39701   0.47846
     Eigenvalues ---    0.50932   0.52874   0.57553   0.58411   0.58488
     Eigenvalues ---    0.58643   0.60746   0.63268   0.90966
 En-DIIS/RFO-DIIS/Sim-DIIS IScMMF=       -3 using points:     4    3    2    1
 RFO step:  Lambda=-3.78157575D-06.
 DidBck=F Rises=F RFO-DIIS coefs:    3.00000   -1.56327    0.41865   -0.85537
 Iteration  1 RMS(Cart)=  0.01440461 RMS(Int)=  0.00015166
 Iteration  2 RMS(Cart)=  0.00015877 RMS(Int)=  0.00000168
 Iteration  3 RMS(Cart)=  0.00000002 RMS(Int)=  0.00000168
 Variable       Old X    -DE/DX   Delta X   Delta X   Delta X     New X
                                 (Linear)    (Quad)   (Total)
    R1        2.52095   0.00002   0.00013   0.00005   0.00018   2.52113
    R2        2.52106   0.00004  -0.00026   0.00014  -0.00012   2.52094
    R3        2.52127   0.00003  -0.00008   0.00011   0.00003   2.52130
    R4        2.87757   0.00002   0.00006   0.00012   0.00018   2.87775
    R5        2.57083   0.00003   0.00008   0.00010   0.00018   2.57100
    R6        2.48223   0.00003  -0.00029   0.00011  -0.00018   2.48205
    R7        2.71953   0.00002  -0.00006   0.00009   0.00004   2.71957
    R8        2.03825   0.00004  -0.00011   0.00020   0.00008   2.03833
    R9        2.32429   0.00010  -0.00002   0.00020   0.00019   2.32448
   R10        2.92270   0.00007   0.00006   0.00049   0.00055   2.92325
   R11        2.53249   0.00020  -0.00094   0.00072  -0.00022   2.53227
   R12        2.53236   0.00022  -0.00047   0.00075   0.00028   2.53264
   R13        2.49802   0.00023  -0.00034   0.00073   0.00040   2.49841
   R14        1.88565   0.00002   0.00017   0.00006   0.00024   1.88589
    A1        1.88911   0.00000  -0.00001  -0.00002  -0.00003   1.88908
    A2        1.89338  -0.00002  -0.00016  -0.00028  -0.00044   1.89295
    A3        1.92396  -0.00002  -0.00016  -0.00024  -0.00041   1.92355
    A4        1.89303   0.00003   0.00033   0.00037   0.00070   1.89373
[...]
    15  H   -0.001971   0.043764   0.001084  -0.000171  -0.000021  -0.000215
              13         14         15
     1  C   -0.000912  -0.050767   0.004518
     2  F   -0.000169   0.001148  -0.000432
     3  F   -0.000062   0.001252  -0.000480
     4  F   -0.000836   0.003483  -0.000383
     5  C   -0.011980   0.399016  -0.020059
     6  C    0.390212  -0.076397  -0.011093
     7  C   -0.014825  -0.008309  -0.001971
     8  O    0.002903  -0.037404   0.043764
     9  C    0.002678  -0.000750   0.001084
    10  F   -0.001163   0.000692  -0.000171
    11  F   -0.001014   0.000266  -0.000021
    12  F    0.000122   0.000409  -0.000215
    13  H    0.375585   0.002743   0.000469
    14  O    0.002743   8.020592   0.297171
    15  H    0.000469   0.297171   0.234510
 Mulliken charges:
               1
     1  C    0.725110
     2  F   -0.262311
     3  F   -0.262144
     4  F   -0.289523
     5  C    0.422280
     6  C   -0.341754
     7  C    0.517995
     8  O   -0.561531
     9  C    0.704917
    10  F   -0.285628
    11  F   -0.267694
    12  F   -0.256129
    13  H    0.256247
    14  O   -0.553145
    15  H    0.453309
 Sum of Mulliken charges =  -0.00000
 Mulliken charges with hydrogens summed into heavy atoms:
               1
     1  C    0.725110
     2  F   -0.262311
     3  F   -0.262144
     4  F   -0.289523
     5  C    0.422280
     6  C   -0.085507
     7  C    0.517995
     8  O   -0.561531
     9  C    0.704917
    10  F   -0.285628
    11  F   -0.267694
    12  F   -0.256129
    14  O   -0.099836
 Electronic spatial extent (au):  <R**2>=           2844.3239
 Charge=             -0.0000 electrons
 Dipole moment (field-independent basis, Debye):
    X=              0.3018    Y=             -1.1060    Z=             -0.1069  Tot=              1.1514
 Quadrupole moment (field-independent basis, Debye-Ang):
   XX=            -79.7549   YY=            -72.6787   ZZ=            -70.4498
   XY=              0.9187   XZ=              0.1226   YZ=              0.0251
 Traceless Quadrupole moment (field-independent basis, Debye-Ang):
   XX=             -5.4604   YY=              1.6158   ZZ=              3.8447
   XY=              0.9187   XZ=              0.1226   YZ=              0.0251
 Octapole moment (field-independent basis, Debye-Ang**2):
  XXX=              1.4784  YYY=            -10.9819  ZZZ=             -0.7522  XYY=              2.7687
  XXY=             -9.8739  XXZ=              0.1833  XZZ=             -0.5497  YZZ=             -3.0573
  YYZ=              0.9569  XYZ=             -0.3892
 Hexadecapole moment (field-independent basis, Debye-Ang**3):
 XXXX=          -2352.1977 YYYY=           -437.2038 ZZZZ=           -190.7264 XXXY=              0.6692
 XXXZ=             -1.9704 YYYX=              6.8754 YYYZ=             -0.5362 ZZZX=              2.7253
 ZZZY=              0.3935 XXYY=           -476.2254 XXZZ=           -429.7504 YYZZ=           -104.7299
 XXYZ=              1.7388 YYXZ=             -2.0035 ZZXY=             -0.9890
 N-N= 8.840630015018D+02 E-N=-3.994534031594D+03  KE= 9.364902316361D+02
 1\1\GINC-ARTEMIY-VIRTUALBOX\SP\RHF\GFHFB2\C5H2F6O2\ARTEMIY\03-Dec-2021
 \0\\#N Geom=AllCheck Guess=TCheck SCRF=Check HF/GFHFB2 SCF=Tight\\Titl
 e Card Required\\0,1\C,0,-2.5354120756,-0.2930998794,0.1017884091\F,0,
 -3.2438587553,-0.1176445279,-1.0147946106\F,0,-3.2254626572,0.22285602
 82,1.1202000975\F,0,-2.3903417685,-1.6028442324,0.3095149609\C,0,-1.18
 26634309,0.3967419294,-0.0200232686\C,0,-0.0024326672,-0.2776561607,0.
 0793846905\C,0,1.2130726596,0.47427723,-0.0595784278\O,0,1.2570662793,
 1.6917300562,-0.2483543148\C,0,2.5616084397,-0.2821398762,-0.005166232
 8\F,0,2.4207953989,-1.5031290327,0.525328077\F,0,3.0425221417,-0.42145
 65724,-1.2445522679\F,0,3.4463130956,0.3943574697,0.7189586424\H,0,0.0
 121105122,-1.3408627208,0.2530772817\O,0,-1.2938650811,1.6868888334,-0
 .2256576366\H,0,-0.3581500911,2.0382874558,-0.2889444\\Version=ES64L-G
 16RevA.03\State=1-A\HF=-937.3040564\RMSD=6.992e-09\Dipole=-0.1172067,-
 0.4241797,0.1073729\Quadrupole=-4.0508276,1.2331716,2.817656,-0.648675
 5,0.3351922,0.2339073\PG=C01 [X(C5H2F6O2)]\\@


 THE 2ND LAW OF THERMODYNAMICS HAS THE SAME
 DEGREE OF TRUTH AS THE STATEMENT THAT IF YOU THROW
 A TUMBLERFULL OF WATER INTO THE SEA, YOU CANNOT GET
 THE SAME TUMBLERFULL OF WATER OUT AGAIN.
          - J.C. MAXWELL, LETTER TO LORD RAYLEIGH, DECEMBER 6,1870
 Diagonal vibrational polarizability:
        0.0000000       0.0000000       0.0000000
 
 Temperature=              298.150000 Pressure=                      1.000000
 E(ZPE)=                     0.076416 E(Thermal)=                    0.088061
 E(QCISD(T))=             -938.945065 E(Empiric)=                   -0.263986
 E(CCSD(T))=                -0.263986 E(Empiric)=                   -0.073087
 DE(Plus)=                  -0.617592 DE(2DF)=                      -1.050111
 E(Delta-G3XP)=             -0.106987 DE(HF)=                     -940.980412
 G4(0 K)=                 -940.968767 G4 Energy=                  -940.967823
 G4 Enthalpy=             -941.021787 G4 Free Energy=    
 1\1\GINC-ARTEMIY-VIRTUALBOX\Mixed\G4\G4\C5H2F6O2\ARTEMIY\03-Dec-2021\0
 \\# g4 geom=gic\\Title Card Required\\0,1\C,0,-2.5354120756,-0.2930998
 794,0.1017884091\F,0,-3.2438587553,-0.1176445279,-1.0147946106\F,0,-3.
 2254626572,0.2228560282,1.1202000975\F,0,-2.3903417685,-1.6028442324,0
 .3095149609\C,0,-1.1826634309,0.3967419294,-0.0200232686\C,0,-0.002432
 6672,-0.2776561607,0.0793846905\C,0,1.2130726596,0.47427723,-0.0595784
 278\O,0,1.2570662793,1.6917300562,-0.2483543148\C,0,2.5616084397,-0.28
 21398762,-0.0051662328\F,0,2.4207953989,-1.5031290327,0.525328077\F,0,
 3.0425221417,-0.4214565724,-1.2445522679\F,0,3.4463130956,0.3943574697
 ,0.7189586424\H,0,0.0121105122,-1.3408627208,0.2530772817\O,0,-1.29386
 50811,1.6868888334,-0.2256576366\H,0,-0.3581500911,2.0382874558,-0.288
 9444\\Version=ES64L-G16RevA.03\State=1-A\MP2/GTBas1=-938.860469\MP4/GT
 Bas1=-938.9636935\CCSD(T)/G3Bas1=-938.9450646\MP2/GTBas2=-938.9273926\
 MP4/GTBas2=-939.0367806\MP2/GTBas3=-939.4411982\MP4/GTBas3=-939.581285
 9\HF/GTLargeXP=-937.2013987\MP2/GTLargeXP=-940.5582323\HF/GFHFB1=-937.
 2862899\HF/GFHFB2=-937.3040564\G4=-940.9804117\FreqCoord=-4.7912344357
 ,-0.5538784993,0.1923522158,-6.1300046344,-0.2223159379,-1.9176838867,
 -6.0952410471,0.4211368585,2.116871389,-4.5170912865,-3.0289366196,0.5
 848985076,-2.234909982,0.7497335887,-0.0378384938,-0.0045970748,-0.524
 6941006,0.1500153235,2.2923750958,0.8962540719,-0.1125869115,2.3755109
 883,3.1969064829,-0.4693216369,4.8407383893,-0.5331670948,-0.009762765
 1,4.5746403074,-2.8405022017,0.9927261911,5.7495335758,-0.7964374952,-
 2.3518629341,6.5125878903,0.7452276129,1.3586349291,0.0228855512,-2.53
 3863313,0.4782467507,-2.4450506454,3.1877578978,-0.4264311311,-0.67680
 55837,3.8518050545,-0.5460257812\PG=C01 [X(C5H2F6O2)]\NImag=0\\0.58571
 647,0.02090855,0.57041237,-0.00391464,-0.00906952,0.51656175,-0.161328
 56,0.00263991,-0.10409331,0.16725653,0.00670841,-0.07780189,0.01231924
 ,-0.02728865,0.08295796,-0.10169092,0.00900108,-0.20065796,0.15111542,
 -0.03626189,0.31259047,-0.15782652,0.03434031,0.09755942,0.02409781,-0
 .00364477,-0.00905936,0.16228628,0.03737558,-0.09616062,-0.04745375,-0
 .00088880,0.01180258,-0.01243762,-0.07138510,0.12699692,0.09397255,-0.
 04409001,-0.18564721,0.00792029,-0.01808172,-0.08156003,-0.13304160,0.
 09867979,0.27338131,-0.08326216,-0.00241164,0.00047183,0.00085430,0.03
 535245,-0.02184568,0.00136766,0.03958536,0.00976168,0.08433448,-0.0115
 5373,-0.27821149,0.03269148,0.02383306,-0.02607989,0.03737208,0.027858
 58,-0.05157104,-0.02766417,-0.03609516,0.39903880,0.00191966,0.0326108
 4,-0.07914625,-0.01867517,0.05008239,-0.02019408,0.01029903,-0.0405829
 5,0.00475113,0.00570413,-0.05064184,0.08766158,-0.18004465,-0.04863024
 ,0.00870544,-0.02637822,-0.00827880,-0.01698037,-0.02538269,-0.0025027
 6,0.01890885,0.00788244,0.01036927,-0.00164289,0.73876788,-0.04762554,
 -0.08274388,0.00330992,0.00588544,0.00658540,0.00692518,0.01818592,0.0
 0479739,-0.01330207,-0.02657276,-0.04171521,0.00814494,-0.07488898,0.7
 1336425,0.00855855,0.00325658,-0.06595841,-0.04114414,-0.00761048,-0.0
 1359491,0.03748708,0.00156933,-0.01278446,0.00424862,0.00785429,0.0066
 3006,0.00765179,-0.08193550,0.21312964,-0.00441674,0.01739912,-0.00251
 583,-0.00643073,-0.00196015,-0.00308627,-0.00645178,-0.00087931,0.0036
 5343,-0.00549346,-0.00306197,0.00051553,-0.34500102,0.08899298,-0.0121
 5524,0.66307067,-0.00574689,0.01557647,-0.00074142,-0.00494603,-0.0018
 3131,-0.00319869,-0.00536323,-0.00066328,0.00390722,0.00014182,-0.0008
 3178,0.00006036,0.13068418,-0.18814694,0.01890669,-0.06550887,0.746863
 48,0.00106050,-0.00097271,0.01085405,0.00239386,0.00028323,0.00122903,
 -0.00064840,0.00032312,0.00002728,0.00005931,0.00007214,-0.00049615,-0
 .01883951,0.01932838,-0.06615337,0.00380933,-0.10499270,0.11552604,-0.
 01284872,0.00066183,-0.00012668,0.00248649,-0.00021495,0.00049172,0.00
 255011,-0.00035732,-0.00046074,0.00281850,0.00158395,-0.00025918,-0.05
 730989,0.01822247,-0.00199452,-0.22180147,-0.06981152,0.01426440,0.576
 48206,-0.00727331,-0.00629800,0.00263534,0.00464262,0.00080427,0.00216
 472,0.00369656,-0.00004641,-0.00222868,0.00027983,0.00146861,-0.000207
 69,-0.01658054,0.06331353,-0.00942156,-0.01867345,-0.14387054,0.011739
 01,0.02982662,0.84822441,0.00163517,0.00267898,0.00907800,0.00196238,0
 .00034373,-0.00007151,-0.00348322,-0.00037665,0.00087529,-0.00014424,-
 0.00033238,0.00024014,0.00400942,-0.01015869,0.00486883,0.00536960,0.0
 1260889,-0.07298121,-0.01371654,-0.09488301,0.23341559,0.00334835,0.00
 032120,-0.00010993,-0.00066419,-0.00031482,-0.00004944,-0.00065422,-0.
 00028173,0.00015935,-0.00131335,-0.00146613,0.00024702,-0.00432000,0.0
 1834490,-0.00287053,0.01877445,-0.04309718,0.00687616,-0.11628485,-0.0
 2648665,0.00530195,0.12651292,0.00804763,0.00082061,-0.00021930,-0.002
 71166,0.00013034,-0.00131208,-0.00267842,0.00056102,0.00126761,-0.0014
 5176,0.00056917,-0.00012191,0.02772162,-0.04370947,0.00630305,-0.06527
 031,-0.04651566,0.01139890,0.00261454,-0.60976340,0.08273974,0.0381471
 7,0.71153582,-0.00144615,-0.00029957,-0.00050136,0.00032630,-0.0000656
 8,0.00029062,0.00059835,0.00000137,-0.00016559,0.00026727,-0.00007443,
 -0.00022125,-0.00470121,0.00661059,-0.00314493,0.01085617,0.01109503,0
 .01786452,0.00046207,0.08308549,-0.07951308,-0.00712184,-0.10355310,0.
 05345899,-0.00644142,-0.00188669,0.00014051,0.00202018,0.00033846,0.00
 084538,0.00211240,0.00005158,-0.00096222,0.00144148,0.00112696,-0.0001
 8317,-0.00843378,0.00652419,-0.00085690,-0.00580663,0.00872151,0.00067
 080,-0.17055861,0.02880409,-0.00126192,0.01294282,0.00649887,-0.002673
 25,0.58540345,0.00158036,0.00398081,-0.00126961,-0.00134102,-0.0006859
 4,-0.00048661,-0.00089823,-0.00051529,0.00052499,-0.00020086,-0.001628
 71,0.00029790,-0.00300768,-0.00647847,0.00222723,-0.01750446,0.0153424
 0,0.00149558,0.03918236,-0.07038084,-0.00113146,0.02612374,-0.04561712
 ,0.00580711,-0.00601585,0.55513860,0.00004761,-0.00098972,-0.00188059,
 -0.00096465,0.00004081,-0.00062776,0.00104252,-0.00001334,-0.00060152,
 -0.00007759,0.00029819,-0.00009644,0.00027260,0.00183752,0.00429837,0.
 00183495,-0.00007114,0.01485127,-0.00372415,-0.00199763,-0.06863753,-0
 .00607005,0.00951119,0.00704029,0.00796417,-0.00034270,0.50663543,0.00
 185563,0.00029694,-0.00017515,-0.00061663,-0.00007738,-0.00026943,-0.0
 0054538,0.00000920,0.00026529,-0.00046566,-0.00025507,0.00004237,0.002
 13381,-0.00033704,-0.00013876,-0.00541140,-0.00148305,0.00001374,0.011
 05882,0.02212663,-0.00919804,-0.00624819,0.00642881,-0.00025185,-0.082
 55295,0.00493644,-0.00312068,0.08105415,-0.00114268,-0.00168823,0.0007
 6948,0.00053180,0.00031058,0.00004465,0.00036678,0.00025606,-0.0001790
 8,0.00021115,0.00106272,-0.00021639,-0.00073868,0.00158583,-0.00052854
 ,0.00407297,-0.00053332,-0.00158520,-0.01778085,-0.03076047,0.01774263
 ,0.01308214,-0.00726167,0.00024976,0.01551880,-0.24746535,0.07074631,0
 .03390301,0.34352835,0.00019131,0.00048594,-0.00011195,0.00001828,-0.0
 0007796,0.00011630,-0.00020097,-0.00005241,0.00014360,-0.00004844,-0.0
 0028907,0.00010774,0.00004528,-0.00002641,0.00029080,-0.00058511,-0.00
 031502,-0.00039672,0.00615179,0.01135819,0.00326203,-0.00416807,0.0024
 0875,0.00008990,-0.00530405,0.06984790,-0.10042414,-0.01233823,-0.1165
 9876,0.12918519,0.00211451,0.00125355,0.00085535,-0.00062625,-0.000158
 51,-0.00039099,-0.00102056,-0.00007617,0.00040166,-0.00044427,-0.00050
 344,-0.00000050,0.00155597,-0.00366109,-0.00080462,-0.00598738,0.00177
 658,-0.00359284,-0.00691275,0.00412486,0.03864653,-0.00190204,0.003125
 73,-0.00342796,-0.12668715,0.02203197,0.09104857,0.00702657,-0.0140343
 8,0.01768220,0.11155346,-0.00071390,-0.00089700,-0.00016658,0.00031360
 ,0.00014114,0.00017644,0.00037665,0.00009757,-0.00015622,0.00014089,0.
 00036775,-0.00002461,0.00030128,0.00150172,0.00028936,0.00299054,-0.00
 233135,0.00095808,0.00998274,0.00434599,-0.01762539,-0.00030561,0.0021
 3752,0.00119098,0.01843315,-0.08203322,-0.03006647,-0.02135390,-0.0022
 6984,0.04987108,-0.00755646,0.07884094,-0.00118889,-0.00069777,-0.0007
 5435,0.00056737,0.00009338,0.00050163,0.00052518,0.00006670,-0.0001142
 5,0.00028540,0.00019012,0.00010280,0.00004041,0.00213368,0.00014435,0.
 00397367,-0.00223220,0.00184399,0.01061389,0.00175570,-0.02133183,0.00
 093855,-0.00420282,0.00421820,0.08570051,-0.03236882,-0.23061365,0.023
 15362,0.03530655,-0.04890608,-0.11230914,0.03150437,0.36056438,0.00238
 202,0.00128144,-0.00100107,-0.00120319,-0.00022634,-0.00049786,-0.0009
 6671,-0.00001381,0.00065668,-0.00052322,-0.00041998,0.00014924,0.00016
 921,-0.00462130,0.00200656,-0.00749129,0.00659099,0.00067788,-0.030883
 28,-0.02900587,-0.02758879,0.00233639,0.00318536,0.00258337,-0.2056790
 6,-0.06205662,-0.08934301,-0.00497183,-0.03515028,-0.00101443,0.021479
 40,-0.00268503,-0.01173730,0.22504334,0.00012890,-0.00049714,-0.000064
 18,-0.00002010,0.00007660,-0.00000882,-0.00005471,0.00011132,0.0000768
 6,-0.00004726,0.00026082,-0.00002463,0.00049374,-0.00031377,-0.0001181
 2,0.00017875,-0.00041297,0.00021508,0.00320162,0.00013947,-0.00004360,
 0.00273696,0.00561493,0.00101798,-0.07197738,-0.11711709,-0.05014335,-
 0.04850385,-0.05811179,-0.01584364,-0.00782125,0.00000862,-0.03053311,
 0.12126141,0.16912502,0.00082283,0.00045462,-0.00031987,-0.00032855,-0
 .00007357,-0.00008458,-0.00046565,0.00003170,0.00035236,-0.00017131,-0
 .00009861,0.00006853,-0.00026027,-0.00199570,0.00015542,-0.00274490,0.
 00298909,-0.00054897,-0.01424488,-0.01213415,-0.00063585,0.00227757,0.
 00095865,0.00135880,-0.08526082,-0.04511705,-0.13254253,0.00260006,-0.
 00551848,0.01765277,-0.02765029,-0.03585187,-0.06526799,0.12538527,0.0
 9557998,0.18020331,-0.00002160,0.00359378,-0.00058526,0.00036217,-0.00
 047366,0.00054835,0.00035770,-0.00062082,-0.00038118,-0.00169669,-0.00
 262228,0.00043300,0.00584276,0.02810083,-0.00461699,-0.05460023,0.0030
 4907,0.00017427,0.00955517,-0.02436824,0.00354849,-0.00622658,-0.00450
 300,0.00091393,-0.00023849,-0.00353181,0.00135834,-0.00192384,0.002921
 53,-0.00115736,0.00005192,0.00039170,-0.00051407,0.00057194,0.00079252
 ,0.00021135,0.05524893,0.00038436,-0.00148504,-0.00034132,-0.00027925,
 0.00007537,-0.00020710,0.00010459,0.00013157,0.00004364,-0.00305771,0.
 00045162,-0.00013966,-0.00090227,-0.01145355,0.00138337,0.00464085,-0.
 34976730,0.05293796,0.00314986,-0.00947339,0.00087945,-0.00171759,0.00
 056559,0.00081984,-0.00059747,-0.00139940,0.00035283,0.00293479,0.0004
 9888,-0.00007460,0.00007622,0.00007528,-0.00017880,0.00004934,0.000208
 71,0.00008071,-0.00521927,0.36859230,-0.00008144,-0.00029838,-0.003294
 33,-0.00111759,-0.00011145,-0.00035085,0.00114580,-0.00003962,-0.00043
 417,0.00050248,-0.00015060,-0.00050710,0.00005374,0.00107255,-0.002855
 76,-0.00029531,0.05307027,-0.03463832,-0.00062604,0.00147543,-0.003563
 90,0.00033676,0.00069839,0.00516614,0.00019429,-0.00001260,-0.00002872
 ,-0.00063911,0.00018328,-0.00066372,0.00034002,-0.00019550,-0.00053758
 ,-0.00026849,-0.00004793,-0.00015486,0.00036007,-0.05664984,0.03272812
 ,0.00742978,-0.03191415,0.00500875,0.00068376,-0.00017939,0.00120851,0
 .00064815,-0.00052574,-0.00106294,-0.00640170,-0.01173335,0.00194087,-
 0.12886903,0.01923695,-0.00260470,0.01732317,0.04087424,-0.00643854,-0
 .00850873,-0.02112674,0.00316961,-0.04361720,0.02139837,-0.00276445,0.
 00348470,0.00009074,-0.00040639,-0.00139746,0.00214362,-0.00070498,-0.
 00100689,0.00036476,0.00051745,-0.00038419,0.00035717,0.00010043,-0.00
 513057,0.00104480,-0.00000144,0.47252859,-0.00378022,-0.03985231,0.005
 94869,-0.00095108,0.00280760,-0.00174596,-0.00111115,0.00343741,0.0013
 5514,-0.00487759,-0.00186570,0.00057833,0.03172940,-0.37826099,0.05081
 496,0.05645479,-0.04366070,0.00954508,-0.03279238,-0.04322892,0.006932
 54,-0.01678394,0.04150404,-0.00585400,-0.00644417,-0.00015603,0.000264
 52,0.00154552,0.00107391,-0.00076678,0.00195897,-0.00019644,-0.0010839
 4,0.00244644,0.00086639,0.00098400,0.00326541,0.00273130,0.00118092,0.
 05360128,0.53283897,0.00054488,0.00630610,-0.00301741,0.00095389,-0.00
 054469,0.00217954,-0.00059119,0.00013601,0.00159084,0.00083464,0.00061
 328,0.00130575,-0.00438003,0.05090927,-0.06692488,-0.00922748,0.009710
 43,0.01659285,0.00529294,0.00629276,-0.00610920,0.00301321,-0.00611534
 ,0.00616126,0.00109181,-0.00008093,-0.00042952,-0.00007041,-0.00026412
 ,-0.00009641,-0.00026527,-0.00001853,0.00017264,-0.00045151,-0.0001172
 3,-0.00008522,-0.00043251,0.00129033,0.01005854,-0.01171443,-0.0768877
 3,0.06622486,0.00334361,0.00214609,-0.00021941,-0.00051348,0.00041810,
 -0.00033905,-0.00057227,0.00050986,0.00020891,0.00090164,0.00293928,-0
 .00048995,0.01938720,-0.04578697,0.00723382,-0.03027615,0.00411839,-0.
 00048098,0.02015716,0.05001362,-0.00825041,0.01731570,-0.04055293,0.00
 637926,-0.00100692,0.00061093,0.00013776,0.00100438,-0.00390494,0.0014
 3277,0.00080545,-0.00068043,-0.00056665,0.00012048,-0.00072652,-0.0002
 7085,-0.00215259,-0.00061124,0.00009626,-0.30678238,-0.08426129,0.0154
 0146,0.27826817,0.00270251,-0.00515469,0.00165152,0.00058017,0.0007071
 8,-0.00002538,0.00020623,0.00076481,-0.00015328,-0.00099677,-0.0013156
 7,0.00018491,-0.04576954,-0.03832585,0.00700934,-0.00187146,0.00078277
 ,-0.00074595,0.01253103,-0.00447431,0.00062521,-0.00830248,-0.01057174
 ,-0.00003139,0.00090394,-0.00098434,0.00057298,-0.00017105,-0.00022565
 ,0.00007279,-0.00053658,0.00021130,0.00024696,-0.00063575,0.00004088,-
 0.00028930,-0.00077576,0.00024806,-0.00017492,-0.07363256,-0.07803853,
 0.00877039,0.11576806,0.13633578,-0.00043100,0.00162355,0.00479588,0.0
 0106564,-0.00033534,0.00023408,-0.00116698,0.00014832,0.00018542,0.000
 15188,0.00015952,-0.00020646,0.00711674,0.00714632,0.00189925,0.000597
 45,-0.00079683,-0.00357429,-0.00212408,0.00036605,0.00110423,0.0012392
 8,0.00023826,-0.01210250,-0.00010514,0.00060906,0.00305704,0.00012659,
 -0.00015209,-0.00024932,-0.00053273,0.00011486,-0.00002225,0.00044346,
 0.00005472,-0.00015134,0.00013957,-0.00019677,-0.00092349,0.01375225,0
 .00873423,-0.02762365,-0.02027295,-0.01771387,0.03357739\\0.00000218,-
 0.00000302,0.00000813,-0.00000247,-0.00000017,-0.00000329,0.00000108,-
 0.00000161,-0.00000121,0.00000016,0.00000193,-0.00000023,-0.00000078,-
 0.00000261,-0.00000065,0.00000108,0.00000161,0.00000083,0.00000300,0.0
 0000039,0.00000007,-0.00000060,-0.00000032,-0.00000103,-0.00001316,-0.
 00000855,0.00001513,0.00000346,0.00001004,-0.00000417,0.00000527,0.,-0
 .00001223,0.00000255,0.00000171,0.00000008,-0.00000005,0.00000010,-0.0
 0000098,0.00000170,0.00000108,-0.00000061,-0.00000342,-0.00000058,0.00
 000016\\\@
 Job cpu time:       0 days 16 hours 28 minutes 56.3 seconds.
 Elapsed time:       0 days  2 hours 21 minutes 18.9 seconds.
 File lengths (MBytes):  RWF= 134464 Int=      0 D2E=      0 Chk=    119 Scr=      1
 Normal termination of Gaussian 16 at Fri Dec  3 01:33:35 2021.
