 Entering Gaussian System, Link 0=/home/artemiy/opt/gaussian/g16/g16
 Input=1,1,1-Tricyanobutene-3_G4.gjf
 Output=1,1,1-Tricyanobutene-3_G4.log
 Initial command:
 /home/artemiy/opt/gaussian/g16/l1.exe "/home/artemiy/opt/gaussian/scr/Gau-11053.inp" -scrdir="/home/artemiy/opt/gaussian/scr/"
 Entering Link 1 = /home/artemiy/opt/gaussian/g16/l1.exe PID=     11056.
  
 Copyright (c) 1988,1990,1992,1993,1995,1998,2003,2009,2016,
            Gaussian, Inc.  All Rights Reserved.
  
 This is part of the Gaussian(R) 16 program.  It is based on
 the Gaussian(R) 09 system (copyright 2009, Gaussian, Inc.),
 the Gaussian(R) 03 system (copyright 2003, Gaussian, Inc.),
 the Gaussian(R) 98 system (copyright 1998, Gaussian, Inc.),
 the Gaussian(R) 94 system (copyright 1995, Gaussian, Inc.),
 the Gaussian 92(TM) system (copyright 1992, Gaussian, Inc.),
 the Gaussian 90(TM) system (copyright 1990, Gaussian, Inc.),
 the Gaussian 88(TM) system (copyright 1988, Gaussian, Inc.),
 the Gaussian 86(TM) system (copyright 1986, Carnegie Mellon
 University), and the Gaussian 82(TM) system (copyright 1983,
 Carnegie Mellon University). Gaussian is a federally registered
 trademark of Gaussian, Inc.
  
 This software contains proprietary and confidential information,
 including trade secrets, belonging to Gaussian, Inc.
  
 This software is provided under written license and may be
 used, copied, transmitted, or stored only in accord with that
 written license.
  
 The following legend is applicable only to US Government
 contracts under FAR:
  
                    RESTRICTED RIGHTS LEGEND
  
 Use, reproduction and disclosure by the US Government is
 subject to restrictions as set forth in subparagraphs (a)
 and (c) of the Commercial Computer Software - Restricted
 Rights clause in FAR 52.227-19.
  
 Gaussian, Inc.
 340 Quinnipiac St., Bldg. 40, Wallingford CT 06492
  
  
 ---------------------------------------------------------------
 Warning -- This program may not be used in any manner that
 competes with the business of Gaussian, Inc. or will provide
 assistance to any competitor of Gaussian, Inc.  The licensee
 of this program is prohibited from giving any competitor of
 Gaussian, Inc. access to this program.  By using this program,
 the user acknowledges that Gaussian, Inc. is engaged in the
 business of creating and licensing software in the field of
 computational chemistry and represents and warrants to the
 licensee that it is not a competitor of Gaussian, Inc. and that
 it will not use this program in any manner prohibited above.
 ---------------------------------------------------------------
  

 Cite this work as:
 Gaussian 16, Revision A.03,
 M. J. Frisch, G. W. Trucks, H. B. Schlegel, G. E. Scuseria, 
 M. A. Robb, J. R. Cheeseman, G. Scalmani, V. Barone, 
 G. A. Petersson, H. Nakatsuji, X. Li, M. Caricato, A. V. Marenich, 
 J. Bloino, B. G. Janesko, R. Gomperts, B. Mennucci, H. P. Hratchian, 
 J. V. Ortiz, A. F. Izmaylov, J. L. Sonnenberg, D. Williams-Young, 
 F. Ding, F. Lipparini, F. Egidi, J. Goings, B. Peng, A. Petrone, 
 T. Henderson, D. Ranasinghe, V. G. Zakrzewski, J. Gao, N. Rega, 
 G. Zheng, W. Liang, M. Hada, M. Ehara, K. Toyota, R. Fukuda, 
 J. Hasegawa, M. Ishida, T. Nakajima, Y. Honda, O. Kitao, H. Nakai, 
 T. Vreven, K. Throssell, J. A. Montgomery, Jr., J. E. Peralta, 
 F. Ogliaro, M. J. Bearpark, J. J. Heyd, E. N. Brothers, K. N. Kudin, 
 V. N. Staroverov, T. A. Keith, R. Kobayashi, J. Normand, 
 K. Raghavachari, A. P. Rendell, J. C. Burant, S. S. Iyengar, 
 J. Tomasi, M. Cossi, J. M. Millam, M. Klene, C. Adamo, R. Cammi, 
 J. W. Ochterski, R. L. Martin, K. Morokuma, O. Farkas, 
 J. B. Foresman, and D. J. Fox, Gaussian, Inc., Wallingford CT, 2016.
 
 ******************************************
 Gaussian 16:  ES64L-G16RevA.03 25-Dec-2016
                17-Jun-2022 
 ******************************************
 %mem=10GB
 %nprocshared=6
 Will use up to    6 processors via shared memory.
 -------------
 # g4 geom=gic
 -------------
 1/18=20,19=15,26=3,38=1,145=2/1,3;
 2/9=110,12=2,17=6,18=5,40=1/2;
 3/5=35,7=104,11=2,25=1,30=1,71=1,74=-5/1,2,3;
 4//1;
 5/5=2,38=5/2;
 6/7=2,8=2,9=2,10=2,28=1/1;
 7//1,2,3,16;
 1/18=20,19=15,26=3,145=2/3(2);
 2/9=110/2;
 99//99;
 2/9=110/2;
 3/5=35,7=104,11=2,25=1,30=1,71=1,74=-5/1,2,3;
 4/5=5,16=3,69=1/1;
 5/5=2,38=5/2;
 7//1,2,3,16;
 1/18=20,19=15,26=3,145=2/3(-5);
 2/9=110/2;
 6/7=2,8=2,9=2,10=2,19=2,28=1/1;
 99/9=1/99;
 -------------------
 CAS 5247-14-3
 -------------------
 Symbolic Z-matrix:
 Charge =  0 Multiplicity = 1
 C                     0.51919  -0.01764  -0.02161 
 C                    -0.56199   0.02345  -1.15167 
 H                    -0.16407   0.66535  -1.9456 
 H                    -0.6497   -0.99442  -1.54522 
 C                     0.69391   1.33237   0.54258 
 C                     0.08118  -0.94102   1.03864 
 C                     1.79974  -0.48458  -0.58073 
 N                     2.80127  -0.86347  -1.07923 
 N                     0.8033    2.43195   0.95961 
 N                    -0.29757  -1.70304   1.85755 
 C                    -1.87437   0.52117  -0.6343 
 H                    -1.94262   1.58123  -0.39765 
 C                    -2.92994  -0.27941  -0.44874 
 H                    -2.89012  -1.3405   -0.67726 
 H                    -3.86876   0.10421  -0.06481 
 
 Initializing the GIC definitions file.

 GradGradGradGradGradGradGradGradGradGradGradGradGradGradGradGradGradGrad
 Berny optimization.
 Initialization pass.
                           ----------------------------
                           !    Initial Parameters    !
                           ! (Angstroms and Degrees)  !
 --------------------------                            --------------------------
 ! Name  Definition              Value          Derivative Info.                !
 --------------------------------------------------------------------------------
 ! R1    R(1,2)                  1.5645         estimate D2E/DX2                !
 ! R2    R(1,5)                  1.4736         estimate D2E/DX2                !
 ! R3    R(1,6)                  1.4726         estimate D2E/DX2                !
 ! R4    R(1,7)                  1.4733         estimate D2E/DX2                !
 ! R5    R(2,3)                  1.0958         estimate D2E/DX2                !
 ! R6    R(2,4)                  1.0948         estimate D2E/DX2                !
 ! R7    R(2,11)                 1.4959         estimate D2E/DX2                !
 ! R8    R(5,9)                  1.1811         estimate D2E/DX2                !
 ! R9    R(6,10)                 1.181          estimate D2E/DX2                !
 ! R10   R(7,8)                  1.1812         estimate D2E/DX2                !
 ! R11   R(11,12)                1.0883         estimate D2E/DX2                !
 ! R12   R(11,13)                1.3378         estimate D2E/DX2                !
 ! R13   R(13,14)                1.0862         estimate D2E/DX2                !
 ! R14   R(13,15)                1.0844         estimate D2E/DX2                !
 ! A1    A(2,1,5)              109.5381         estimate D2E/DX2                !
 ! A2    A(2,1,6)              109.3277         estimate D2E/DX2                !
 ! A3    A(2,1,7)              109.565          estimate D2E/DX2                !
 ! A4    A(5,1,6)              109.5154         estimate D2E/DX2                !
 ! A5    A(5,1,7)              109.4274         estimate D2E/DX2                !
 ! A6    A(6,1,7)              109.4537         estimate D2E/DX2                !
 ! A7    A(1,2,3)              106.7253         estimate D2E/DX2                !
 ! A8    A(1,2,4)              106.8933         estimate D2E/DX2                !
 ! A9    A(1,2,11)             111.4204         estimate D2E/DX2                !
 ! A10   A(3,2,4)              108.2564         estimate D2E/DX2                !
 ! A11   A(3,2,11)             111.9791         estimate D2E/DX2                !
 ! A12   A(4,2,11)             111.3074         estimate D2E/DX2                !
 ! A13   L(1,5,9,12,-1)        177.9381         estimate D2E/DX2                !
 ! A14   L(1,5,9,12,-2)        181.2759         estimate D2E/DX2                !
 ! A15   L(1,6,10,14,-1)       177.9762         estimate D2E/DX2                !
 ! A16   L(1,6,10,14,-2)       178.9564         estimate D2E/DX2                !
 ! A17   L(1,7,8,3,-1)         177.4974         estimate D2E/DX2                !
 ! A18   L(1,7,8,3,-2)         181.3373         estimate D2E/DX2                !
 ! A19   A(2,11,12)            117.0208         estimate D2E/DX2                !
 ! A20   A(2,11,13)            122.7595         estimate D2E/DX2                !
 ! A21   A(12,11,13)           120.2168         estimate D2E/DX2                !
 ! A22   A(11,13,14)           121.7712         estimate D2E/DX2                !
 ! A23   A(11,13,15)           121.3678         estimate D2E/DX2                !
 ! A24   A(14,13,15)           116.8608         estimate D2E/DX2                !
 ! D1    D(5,1,2,3)             63.7934         estimate D2E/DX2                !
 ! D2    D(5,1,2,4)            179.459          estimate D2E/DX2                !
 ! D3    D(5,1,2,11)           -58.7328         estimate D2E/DX2                !
 ! D4    D(6,1,2,3)           -176.1995         estimate D2E/DX2                !
 ! D5    D(6,1,2,4)            -60.5339         estimate D2E/DX2                !
 ! D6    D(6,1,2,11)            61.2743         estimate D2E/DX2                !
 ! D7    D(7,1,2,3)            -56.2515         estimate D2E/DX2                !
 ! D8    D(7,1,2,4)             59.4141         estimate D2E/DX2                !
 ! D9    D(7,1,2,11)          -178.7776         estimate D2E/DX2                !
 ! D10   D(1,2,11,12)           72.1603         estimate D2E/DX2                !
 ! D11   D(1,2,11,13)         -107.2206         estimate D2E/DX2                !
 ! D12   D(3,2,11,12)          -47.2921         estimate D2E/DX2                !
 ! D13   D(3,2,11,13)          133.327          estimate D2E/DX2                !
 ! D14   D(4,2,11,12)         -168.6261         estimate D2E/DX2                !
 ! D15   D(4,2,11,13)           11.993          estimate D2E/DX2                !
 ! D16   D(2,11,13,14)          -0.6963         estimate D2E/DX2                !
 ! D17   D(2,11,13,15)         179.5053         estimate D2E/DX2                !
 ! D18   D(12,11,13,14)        179.9419         estimate D2E/DX2                !
 ! D19   D(12,11,13,15)          0.1435         estimate D2E/DX2                !
 --------------------------------------------------------------------------------
 Trust Radius=3.00D-01 FncErr=1.00D-07 GrdErr=1.00D-06 EigMax=2.50D+02 EigMin=1.00D-04
 Number of steps in this run=     67 maximum allowed number of steps=    100.
 GradGradGradGradGradGradGradGradGradGradGradGradGradGradGradGradGradGrad

                          Input orientation:                          
 ---------------------------------------------------------------------
 Center     Atomic      Atomic             Coordinates (Angstroms)
 Number     Number       Type             X           Y           Z
 ---------------------------------------------------------------------
      1          6           0        0.519186   -0.017644   -0.021610
      2          6           0       -0.561988    0.023453   -1.151666
      3          1           0       -0.164072    0.665353   -1.945600
      4          1           0       -0.649701   -0.994421   -1.545218
      5          6           0        0.693910    1.332368    0.542582
      6          6           0        0.081175   -0.941015    1.038641
      7          6           0        1.799744   -0.484578   -0.580732
      8          7           0        2.801270   -0.863470   -1.079232
      9          7           0        0.803302    2.431948    0.959611
     10          7           0       -0.297574   -1.703044    1.857551
     11          6           0       -1.874368    0.521172   -0.634300
     12          1           0       -1.942618    1.581227   -0.397649
     13          6           0       -2.929944   -0.279406   -0.448744
     14          1           0       -2.890120   -1.340503   -0.677256
     15          1           0       -3.868762    0.104210   -0.064813
 ---------------------------------------------------------------------
                    Distance matrix (angstroms):
                    1          2          3          4          5
     1  C    0.000000
     2  C    1.564498   0.000000
     3  H    2.152920   1.095766   0.000000
     4  H    2.154477   1.094826   1.775103   0.000000
     5  C    1.473558   2.482139   2.715160   3.402668   0.000000
     6  C    1.472617   2.478165   3.397979   2.685770   2.406198
     7  C    1.473253   2.482305   2.653635   2.681409   2.405410
     8  N    2.653657   3.478992   3.446904   3.484751   3.448616
     9  N    2.654057   3.481717   3.535098   4.486133   1.181083
    10  N    2.653096   3.479381   4.482308   3.493562   3.453391
    11  C    2.528797   1.495905   2.159956   2.150954   2.939242
    12  H    2.959438   2.213897   2.529467   3.102017   2.810204
    13  C    3.485321   2.488582   3.283778   2.629260   4.088137
    14  H    3.715265   2.739642   3.614345   2.427469   4.634384
    15  H    4.389852   3.481742   4.192490   3.709574   4.763956
                    6          7          8          9         10
     6  C    0.000000
     7  C    2.405033   0.000000
     8  N    3.448234   1.181150   0.000000
     9  N    3.450303   3.445530   4.359878   0.000000
    10  N    1.180996   3.439277   4.351139   4.372229   0.000000
    11  C    2.959877   3.809659   4.896610   3.655343   3.693608
    12  H    3.538414   4.278591   5.380109   3.178987   4.310282
    13  C    3.422993   4.735976   5.795296   4.824109   3.778242
    14  H    3.454343   4.768307   5.725475   5.527394   3.643896
    15  H    4.232270   5.722308   6.815774   5.319398   4.440161
                   11         12         13         14         15
    11  C    0.000000
    12  H    1.088291   0.000000
    13  C    1.337758   2.106983   0.000000
    14  H    2.121186   3.084225   1.086154   0.000000
    15  H    2.115604   2.449977   1.084409   1.849330   0.000000
 Stoichiometry    C7H5N3
 Framework group  C1[X(C7H5N3)]
 Deg. of freedom    39
 Full point group                 C1      NOp   1
 Largest Abelian subgroup         C1      NOp   1
 Largest concise Abelian subgroup C1      NOp   1
                         Standard orientation:                         
 ---------------------------------------------------------------------
 Center     Atomic      Atomic             Coordinates (Angstroms)
 Number     Number       Type             X           Y           Z
 ---------------------------------------------------------------------
      1          6           0        0.519186   -0.017644   -0.021610
      2          6           0       -0.561988    0.023453   -1.151666
      3          1           0       -0.164072    0.665353   -1.945600
      4          1           0       -0.649701   -0.994421   -1.545218
      5          6           0        0.693910    1.332368    0.542582
      6          6           0        0.081175   -0.941015    1.038641
      7          6           0        1.799744   -0.484578   -0.580732
      8          7           0        2.801270   -0.863470   -1.079232
      9          7           0        0.803302    2.431948    0.959611
     10          7           0       -0.297574   -1.703044    1.857551
     11          6           0       -1.874368    0.521172   -0.634300
     12          1           0       -1.942618    1.581227   -0.397649
     13          6           0       -2.929944   -0.279406   -0.448744
     14          1           0       -2.890120   -1.340503   -0.677256
     15          1           0       -3.868762    0.104210   -0.064813
 ---------------------------------------------------------------------
 Rotational constants (GHZ):           1.6493708           1.0705819           0.9665364
 Standard basis: GTBas3 (6D, 7F)
 There are   335 symmetry adapted cartesian basis functions of A   symmetry.
 There are   305 symmetry adapted basis functions of A   symmetry.
   305 basis functions,   475 primitive gaussians,   335 cartesian basis functions
    34 alpha electrons       34 beta electrons
       nuclear repulsion energy       427.6916822917 Hartrees.
 NAtoms=   15 NActive=   15 NUniq=   15 SFac= 1.00D+00 NAtFMM=   60 NAOKFM=F Big=F
 Integral buffers will be    131072 words long.
 Raffenetti 2 integral format.
 Two-electron integral symmetry is turned on.
 One-electron integrals computed using PRISM.
 NBasis=   305 RedAO= T EigKep=  1.01D-04  NBF=   305
 NBsUse=   305 1.00D-06 EigRej= -1.00D+00 NBFU=   305
 ExpMin= 1.61D-01 ExpMax= 4.17D+03 ExpMxC= 6.27D+02 IAcc=3 IRadAn=         5 AccDes= 0.00D+00
 Harris functional with IExCor=  402 and IRadAn=       5 diagonalized for initial guess.
 HarFok:  IExCor=  402 AccDes= 0.00D+00 IRadAn=         5 IDoV= 1 UseB2=F ITyADJ=14
 ICtDFT=  3500011 ScaDFX=  1.000000  1.000000  1.000000  1.000000
 FoFCou: FMM=F IPFlag=           0 FMFlag=      100000 FMFlg1=           0
         NFxFlg=           0 DoJE=T BraDBF=F KetDBF=T FulRan=T
         wScrn=  0.000000 ICntrl=       500 IOpCl=  0 I1Cent=   200000004 NGrid=           0
         NMat0=    1 NMatS0=      1 NMatT0=    0 NMatD0=    1 NMtDS0=    0 NMtDT0=    0
 Petite list used in FoFCou.
 Requested convergence on RMS density matrix=1.00D-08 within 128 cycles.
 Requested convergence on MAX density matrix=1.00D-06.
 Requested convergence on             energy=1.00D-06.
 No special actions if energy rises.
 Integral accuracy reduced to 1.0D-05 until final iterations.
 Initial convergence to 1.0D-05 achieved.  Increase integral accuracy.
 SCF Done:  E(RB3LYP) =  -433.918107827     A.U. after   14 cycles
            NFock= 14  Conv=0.69D-08     -V/T= 2.0083

 **********************************************************************

            Population analysis using the SCF density.

 **********************************************************************

 Orbital symmetries:
       Occupied  (A) (A) (A) (A) (A) (A) (A) (A) (A) (A) (A) (A)
                 (A) (A) (A) (A) (A) (A) (A) (A) (A) (A) (A) (A)
                 (A) (A) (A) (A) (A) (A) (A) (A) (A) (A)
       Virtual   (A) (A) (A) (A) (A) (A) (A) (A) (A) (A) (A) (A)
                 (A) (A) (A) (A) (A) (A) (A) (A) (A) (A) (A) (A)
                 (A) (A) (A) (A) (A) (A) (A) (A) (A) (A) (A) (A)
                 (A) (A) (A) (A) (A) (A) (A) (A) (A) (A) (A) (A)
                 (A) (A) (A) (A) (A) (A) (A) (A) (A) (A) (A) (A)
                 (A) (A) (A) (A) (A) (A) (A) (A) (A) (A) (A) (A)
                 (A) (A) (A) (A) (A) (A) (A) (A) (A) (A) (A) (A)
                 (A) (A) (A) (A) (A) (A) (A) (A) (A) (A) (A) (A)
                 (A) (A) (A) (A) (A) (A) (A) (A) (A) (A) (A) (A)
                 (A) (A) (A) (A) (A) (A) (A) (A) (A) (A) (A) (A)
                 (A) (A) (A) (A) (A) (A) (A) (A) (A) (A) (A) (A)
                 (A) (A) (A) (A) (A) (A) (A) (A) (A) (A) (A) (A)
                 (A) (A) (A) (A) (A) (A) (A) (A) (A) (A) (A) (A)
                 (A) (A) (A) (A) (A) (A) (A) (A) (A) (A) (A) (A)
                 (A) (A) (A) (A) (A) (A) (A) (A) (A) (A) (A) (A)
                 (A) (A) (A) (A) (A) (A) (A) (A) (A) (A) (A) (A)
                 (A) (A) (A) (A) (A) (A) (A) (A) (A) (A) (A) (A)
                 (A) (A) (A) (A) (A) (A) (A) (A) (A) (A) (A) (A)
                 (A) (A) (A) (A) (A) (A) (A) (A) (A) (A) (A) (A)
                 (A) (A) (A) (A) (A) (A) (A) (A) (A) (A) (A) (A)
                 (A) (A) (A) (A) (A) (A) (A) (A) (A) (A) (A) (A)
                 (A) (A) (A) (A) (A) (A) (A) (A) (A) (A) (A) (A)
                 (A) (A) (A) (A) (A) (A) (A)
 The electronic state is 1-A.
 Alpha  occ. eigenvalues --  -14.38511 -14.38465 -14.38238 -10.35389 -10.27638
 Alpha  occ. eigenvalues --  -10.27579 -10.27377 -10.25917 -10.22680 -10.21746
 Alpha  occ. eigenvalues --   -0.96737  -0.93418  -0.93237  -0.89015  -0.81697
 Alpha  occ. eigenvalues --   -0.72545  -0.64221  -0.63624  -0.59010  -0.52166
 Alpha  occ. eigenvalues --   -0.49683  -0.46504  -0.42617  -0.40967  -0.40761
 Alpha  occ. eigenvalues --   -0.40407  -0.39513  -0.38479  -0.38151  -0.36524
 Alpha  occ. eigenvalues --   -0.36436  -0.36031  -0.35927  -0.29878
 Alpha virt. eigenvalues --   -0.04978  -0.04454  -0.04376  -0.02534   0.00263
 Alpha virt. eigenvalues --    0.00738   0.05521   0.05888   0.08815   0.09720
 Alpha virt. eigenvalues --    0.11835   0.14442   0.15099   0.16169   0.16769
 Alpha virt. eigenvalues --    0.19462   0.25363   0.31159   0.32263   0.32971
 Alpha virt. eigenvalues --    0.34592   0.39883   0.42451   0.43476   0.44413
 Alpha virt. eigenvalues --    0.47109   0.47710   0.48127   0.48321   0.50101
 Alpha virt. eigenvalues --    0.52134   0.55211   0.55833   0.57064   0.58770
 Alpha virt. eigenvalues --    0.59295   0.59611   0.61466   0.62051   0.63708
 Alpha virt. eigenvalues --    0.64476   0.67030   0.67303   0.68977   0.69484
 Alpha virt. eigenvalues --    0.70496   0.71315   0.71861   0.72523   0.73121
 Alpha virt. eigenvalues --    0.74085   0.74454   0.76276   0.76924   0.78132
 Alpha virt. eigenvalues --    0.79652   0.81071   0.82748   0.83623   0.83970
 Alpha virt. eigenvalues --    0.85346   0.86910   0.88003   0.89088   0.90964
 Alpha virt. eigenvalues --    0.91890   0.96838   0.98079   0.98584   1.01789
 Alpha virt. eigenvalues --    1.04268   1.06509   1.09748   1.12582   1.16919
 Alpha virt. eigenvalues --    1.18477   1.21916   1.23693   1.27087   1.27209
 Alpha virt. eigenvalues --    1.30770   1.31100   1.32943   1.33238   1.35787
 Alpha virt. eigenvalues --    1.35959   1.38034   1.38812   1.43558   1.45206
 Alpha virt. eigenvalues --    1.48316   1.48853   1.52409   1.57852   1.58312
 Alpha virt. eigenvalues --    1.60993   1.63733   1.64120   1.67002   1.67898
 Alpha virt. eigenvalues --    1.69191   1.76019   1.76613   1.79562   1.80945
 Alpha virt. eigenvalues --    1.83545   1.84083   1.85329   1.87251   1.89066
 Alpha virt. eigenvalues --    1.95498   2.03082   2.05578   2.12981   2.14941
 Alpha virt. eigenvalues --    2.19107   2.20650   2.27801   2.31334   2.32777
 Alpha virt. eigenvalues --    2.43429   2.44833   2.53824   2.57726   2.62395
 Alpha virt. eigenvalues --    2.63908   2.68857   2.70233   2.71415   2.71905
 Alpha virt. eigenvalues --    2.72831   2.74302   2.76708   2.78139   2.79431
 Alpha virt. eigenvalues --    2.79744   2.81234   2.82002   2.82449   2.83917
 Alpha virt. eigenvalues --    2.84164   2.85214   2.88500   2.91897   2.92863
 Alpha virt. eigenvalues --    2.95129   2.98992   3.01207   3.02615   3.10481
 Alpha virt. eigenvalues --    3.12040   3.14667   3.16382   3.18816   3.20823
 Alpha virt. eigenvalues --    3.22083   3.24117   3.29856   3.30469   3.31066
 Alpha virt. eigenvalues --    3.38479   3.39021   3.42316   3.46508   3.47020
 Alpha virt. eigenvalues --    3.49642   3.55397   3.58916   3.60820   3.61803
 Alpha virt. eigenvalues --    3.62352   3.62543   3.62660   3.62967   3.64807
 Alpha virt. eigenvalues --    3.66350   3.67980   3.69368   3.70173   3.72545
 Alpha virt. eigenvalues --    3.76239   3.77494   3.78190   3.78843   3.81457
 Alpha virt. eigenvalues --    3.84536   3.84801   3.88477   3.90504   3.94578
 Alpha virt. eigenvalues --    3.98059   4.00394   4.07619   4.09100   4.10587
 Alpha virt. eigenvalues --    4.11589   4.12296   4.12404   4.13426   4.14116
 Alpha virt. eigenvalues --    4.17014   4.18638   4.19034   4.22012   4.22363
 Alpha virt. eigenvalues --    4.24913   4.26549   4.29045   4.30329   4.32151
 Alpha virt. eigenvalues --    4.32906   4.33508   4.34403   4.36111   4.37732
 Alpha virt. eigenvalues --    4.42804   4.44033   4.46712   4.48103   4.50542
 Alpha virt. eigenvalues --    4.53408   4.58094   4.59713   4.62195   4.66199
 Alpha virt. eigenvalues --    4.70260   4.73184   4.75561   4.76688   4.77396
 Alpha virt. eigenvalues --    4.79738   4.80712   4.84570   4.86482   4.87587
 Alpha virt. eigenvalues --    4.93603   4.96105   4.99092   5.00811   5.06414
 Alpha virt. eigenvalues --    5.20270   5.21152   5.22675   5.24421   5.24887
 Alpha virt. eigenvalues --    5.30532   5.32480   5.33750   5.37079   5.38293
 Alpha virt. eigenvalues --    5.42004   5.52444   5.61697   6.05010   6.12305
 Alpha virt. eigenvalues --    6.24097   6.25058   7.50096  10.19118  10.48970
 Alpha virt. eigenvalues --   10.86701  10.96487  11.33712  11.39805  11.41653
 Alpha virt. eigenvalues --   11.59949  12.05730  13.15970  17.61429  18.73004
 Alpha virt. eigenvalues --   21.36468
          Condensed to atoms (all electrons):
               1          2          3          4          5          6
     1  C    4.818750   0.364186  -0.027959  -0.020074   0.375719   0.379941
     2  C    0.364186   4.942283   0.364238   0.353447  -0.037592  -0.033597
     3  H   -0.027959   0.364238   0.561941  -0.029041  -0.006845   0.004706
     4  H   -0.020074   0.353447  -0.029041   0.561199   0.004720  -0.007525
     5  C    0.375719  -0.037592  -0.006845   0.004720   4.421910  -0.053364
     6  C    0.379941  -0.033597   0.004706  -0.007525  -0.053364   4.429666
     7  C    0.395967  -0.035338  -0.000606  -0.000405  -0.027262  -0.033445
     8  N   -0.001448  -0.002840   0.000321   0.000339  -0.004298  -0.004131
     9  N   -0.010576  -0.003102   0.000245  -0.000019   0.969717  -0.004118
    10  N   -0.009467  -0.002784  -0.000046   0.000243  -0.004241   0.958365
    11  C   -0.047701   0.424940  -0.023533  -0.017581   0.002137  -0.002108
    12  H   -0.003222  -0.054396  -0.002718   0.004946   0.008633  -0.001089
    13  C   -0.005853  -0.009575   0.002528  -0.009360  -0.000593   0.007546
    14  H    0.000329  -0.015506   0.000093   0.006219   0.000050   0.000385
    15  H    0.000067   0.004333  -0.000178  -0.000018   0.000023  -0.000136
               7          8          9         10         11         12
     1  C    0.395967  -0.001448  -0.010576  -0.009467  -0.047701  -0.003222
     2  C   -0.035338  -0.002840  -0.003102  -0.002784   0.424940  -0.054396
     3  H   -0.000606   0.000321   0.000245  -0.000046  -0.023533  -0.002718
     4  H   -0.000405   0.000339  -0.000019   0.000243  -0.017581   0.004946
     5  C   -0.027262  -0.004298   0.969717  -0.004241   0.002137   0.008633
     6  C   -0.033445  -0.004131  -0.004118   0.958365  -0.002108  -0.001089
     7  C    4.408338   0.966431  -0.004719  -0.004869   0.003162  -0.000066
     8  N    0.966431   6.367156  -0.000044  -0.000040   0.000040  -0.000001
     9  N   -0.004719  -0.000044   6.381837  -0.000019  -0.001117   0.000500
    10  N   -0.004869  -0.000040  -0.000019   6.393475  -0.002896  -0.000015
    11  C    0.003162   0.000040  -0.001117  -0.002896   4.649615   0.381588
    12  H   -0.000066  -0.000001   0.000500  -0.000015   0.381588   0.581624
    13  C   -0.000045  -0.000002   0.000037  -0.000997   0.684170  -0.044425
    14  H   -0.000043   0.000000  -0.000001   0.000042  -0.020213   0.005719
    15  H    0.000003   0.000000   0.000000   0.000029  -0.015261  -0.006778
              13         14         15
     1  C   -0.005853   0.000329   0.000067
     2  C   -0.009575  -0.015506   0.004333
     3  H    0.002528   0.000093  -0.000178
     4  H   -0.009360   0.006219  -0.000018
     5  C   -0.000593   0.000050   0.000023
     6  C    0.007546   0.000385  -0.000136
     7  C   -0.000045  -0.000043   0.000003
     8  N   -0.000002   0.000000   0.000000
     9  N    0.000037  -0.000001   0.000000
    10  N   -0.000997   0.000042   0.000029
    11  C    0.684170  -0.020213  -0.015261
    12  H   -0.044425   0.005719  -0.006778
    13  C    4.930989   0.368045   0.369049
    14  H    0.368045   0.564912  -0.039843
    15  H    0.369049  -0.039843   0.550085
 Mulliken charges:
               1
     1  C   -0.208659
     2  C   -0.258697
     3  H    0.156854
     4  H    0.152913
     5  C    0.351287
     6  C    0.358904
     7  C    0.332897
     8  N   -0.321483
     9  N   -0.328620
    10  N   -0.326781
    11  C   -0.015241
    12  H    0.129701
    13  C   -0.291513
    14  H    0.129813
    15  H    0.138624
 Sum of Mulliken charges =  -0.00000
 Mulliken charges with hydrogens summed into heavy atoms:
               1
     1  C   -0.208659
     2  C    0.051070
     5  C    0.351287
     6  C    0.358904
     7  C    0.332897
     8  N   -0.321483
     9  N   -0.328620
    10  N   -0.326781
    11  C    0.114460
    13  C   -0.023076
 Electronic spatial extent (au):  <R**2>=           1373.8295
 Charge=             -0.0000 electrons
 Dipole moment (field-independent basis, Debye):
    X=             -3.1627    Y=              0.1170    Z=             -2.5188  Tot=              4.0449
 Quadrupole moment (field-independent basis, Debye-Ang):
   XX=            -60.5577   YY=            -65.6457   ZZ=            -61.6447
   XY=              0.2099   XZ=              4.0230   YZ=              0.2672
 Traceless Quadrupole moment (field-independent basis, Debye-Ang):
   XX=              2.0583   YY=             -3.0296   ZZ=              0.9713
   XY=              0.2099   XZ=              4.0230   YZ=              0.2672
 Octapole moment (field-independent basis, Debye-Ang**2):
  XXX=            -45.7997  YYY=            -13.8023  ZZZ=            -10.4470  XYY=            -11.0785
  XXY=              7.3971  XXZ=             13.4703  XZZ=             -0.7988  YZZ=              7.1279
  YYZ=            -17.7209  XYZ=            -10.0478
 Hexadecapole moment (field-independent basis, Debye-Ang**3):
 XXXX=           -987.2647 YYYY=           -572.2486 ZZZZ=           -400.5253 XXXY=             30.9358
 XXXZ=             28.9737 YYYX=            -18.8651 YYYZ=             -7.8182 ZZZX=              4.9871
 ZZZY=             13.0704 XXYY=           -250.8149 XXZZ=           -250.0800 YYZZ=           -173.1875
 XXYZ=             -9.4944 YYXZ=              2.3936 ZZXY=              0.3188
 N-N= 4.276916822917D+02 E-N=-1.862045293174D+03  KE= 4.303294279845D+02
 Calling FoFJK, ICntrl=      2127 FMM=F ISym2X=0 I1Cent= 0 IOpClX= 0 NMat=1 NMatS=1 NMatT=0.
 ***** Axes restored to original set *****
 -------------------------------------------------------------------
 Center     Atomic                   Forces (Hartrees/Bohr)
 Number     Number              X              Y              Z
 -------------------------------------------------------------------
      1        6           0.004058853    0.000028334    0.003149682
      2        6          -0.003558200   -0.000276763   -0.006371256
      3        1          -0.000070810   -0.000508796    0.000683062
      4        1           0.000166839    0.001367468    0.000376915
      5        6           0.006982469    0.059107948    0.022752145
      6        6          -0.019308704   -0.041751233    0.044677326
      7        6           0.053645682   -0.020156530   -0.026439890
      8        7          -0.050994107    0.019269157    0.025392973
      9        7          -0.005490876   -0.055899212   -0.021185811
     10        7           0.019666448    0.038886783   -0.041611451
     11        6          -0.012453870   -0.005948803    0.000135756
     12        1           0.000772025   -0.001025089   -0.000180431
     13        6           0.006739895    0.006917708   -0.001411947
     14        1          -0.000181640    0.000264964    0.000167176
     15        1           0.000025997   -0.000275935   -0.000134249
 -------------------------------------------------------------------
 Cartesian Forces:  Max     0.059107948 RMS     0.022791953

 GradGradGradGradGradGradGradGradGradGradGradGradGradGradGradGradGradGrad
 Berny optimization.
 FormGI is forming the generalized inverse of G from B-inverse, IUseBI=4.
 Internal  Forces:  Max     0.060252039 RMS     0.014020731
 Search for a local minimum.
 Step number   1 out of a maximum of   67
 All quantities printed in internal units (Hartrees-Bohrs-Radians)
 Mixed Optimization -- RFO/linear search
 Second derivative matrix not updated -- first step.
 ITU=  0
     Eigenvalues ---    0.00230   0.00820   0.01688   0.02912   0.02912
     Eigenvalues ---    0.04304   0.04587   0.04587   0.04588   0.04588
     Eigenvalues ---    0.04589   0.04589   0.05607   0.08826   0.08862
     Eigenvalues ---    0.08996   0.12662   0.15999   0.16000   0.16000
     Eigenvalues ---    0.21982   0.22000   0.25000   0.25000   0.25000
     Eigenvalues ---    0.26454   0.32811   0.34155   0.34261   0.35011
     Eigenvalues ---    0.35261   0.35318   0.35354   0.35429   0.35467
     Eigenvalues ---    0.57710   1.14895   1.14934   1.14982
 RFO step:  Lambda=-1.05740706D-02 EMin= 2.30000000D-03
 Linear search not attempted -- first point.
 Iteration  1 RMS(Cart)=  0.04793828 RMS(Int)=  0.00041912
 Iteration  2 RMS(Cart)=  0.00074878 RMS(Int)=  0.00004310
 Iteration  3 RMS(Cart)=  0.00000033 RMS(Int)=  0.00004310
 Variable       Old X    -DE/DX   Delta X   Delta X   Delta X     New X
                                 (Linear)    (Quad)   (Total)
    R1        2.95647   0.01079   0.00000   0.03924   0.03924   2.99571
    R2        2.78462   0.00372   0.00000   0.01022   0.01022   2.79484
    R3        2.78284   0.00390   0.00000   0.01068   0.01068   2.79352
    R4        2.78404   0.00298   0.00000   0.00819   0.00819   2.79224
    R5        2.07070  -0.00082   0.00000  -0.00233  -0.00233   2.06837
    R6        2.06892  -0.00142   0.00000  -0.00402  -0.00402   2.06490
    R7        2.82685   0.00395   0.00000   0.01168   0.01168   2.83853
    R8        2.23192  -0.06003   0.00000  -0.05175  -0.05175   2.18017
    R9        2.23176  -0.06025   0.00000  -0.05192  -0.05192   2.17984
   R10        2.23205  -0.06014   0.00000  -0.05186  -0.05186   2.18019
   R11        2.05657  -0.00109   0.00000  -0.00301  -0.00301   2.05356
   R12        2.52800  -0.00952   0.00000  -0.01620  -0.01620   2.51180
   R13        2.05253  -0.00030   0.00000  -0.00082  -0.00082   2.05171
   R14        2.04924  -0.00017   0.00000  -0.00046  -0.00046   2.04878
    A1        1.91180   0.00152   0.00000   0.00693   0.00686   1.91866
    A2        1.90813   0.00314   0.00000   0.01373   0.01367   1.92180
    A3        1.91227  -0.00094   0.00000  -0.00640  -0.00638   1.90589
    A4        1.91141  -0.00121   0.00000   0.00098   0.00085   1.91225
    A5        1.90987  -0.00096   0.00000  -0.00705  -0.00704   1.90283
    A6        1.91033  -0.00155   0.00000  -0.00818  -0.00815   1.90218
    A7        1.86271  -0.00237   0.00000  -0.01285  -0.01280   1.84991
    A8        1.86564  -0.00145   0.00000  -0.00138  -0.00151   1.86412
    A9        1.94465   0.00617   0.00000   0.02891   0.02888   1.97353
   A10        1.88943   0.00075   0.00000  -0.00423  -0.00430   1.88513
   A11        1.95440  -0.00168   0.00000  -0.00899  -0.00891   1.94549
   A12        1.94268  -0.00155   0.00000  -0.00224  -0.00239   1.94029
   A13        3.10561   0.00016   0.00000   0.00277   0.00277   3.10838
   A14        3.16386   0.00002   0.00000   0.00044   0.00044   3.16430
   A15        3.10627   0.00085   0.00000   0.01501   0.01501   3.12128
   A16        3.12338  -0.00010   0.00000  -0.00172  -0.00172   3.12166
   A17        3.09791   0.00004   0.00000   0.00068   0.00068   3.09859
   A18        3.16493   0.00003   0.00000   0.00062   0.00062   3.16555
   A19        2.04240  -0.00206   0.00000  -0.00997  -0.00997   2.03242
   A20        2.14256   0.00277   0.00000   0.01203   0.01202   2.15458
   A21        2.09818  -0.00071   0.00000  -0.00200  -0.00201   2.09617
   A22        2.12531   0.00010   0.00000   0.00056   0.00056   2.12587
   A23        2.11827   0.00021   0.00000   0.00122   0.00122   2.11949
   A24        2.03960  -0.00030   0.00000  -0.00178  -0.00178   2.03783
    D1        1.11340  -0.00027   0.00000   0.00345   0.00338   1.11678
    D2        3.13215  -0.00124   0.00000  -0.00827  -0.00832   3.12383
    D3       -1.02508  -0.00039   0.00000   0.00544   0.00546  -1.01962
    D4       -3.07526   0.00110   0.00000   0.01727   0.01728  -3.05798
    D5       -1.05652   0.00013   0.00000   0.00556   0.00559  -1.05093
    D6        1.06944   0.00098   0.00000   0.01927   0.01937   1.08880
    D7       -0.98177   0.00055   0.00000   0.01177   0.01173  -0.97004
    D8        1.03697  -0.00042   0.00000   0.00005   0.00003   1.03700
    D9       -3.12026   0.00044   0.00000   0.01377   0.01381  -3.10645
   D10        1.25944  -0.00057   0.00000  -0.01700  -0.01703   1.24241
   D11       -1.87135  -0.00073   0.00000  -0.02291  -0.02293  -1.89428
   D12       -0.82540  -0.00063   0.00000  -0.01433  -0.01431  -0.83972
   D13        2.32699  -0.00080   0.00000  -0.02024  -0.02022   2.30678
   D14       -2.94308   0.00068   0.00000  -0.00098  -0.00097  -2.94405
   D15        0.20932   0.00051   0.00000  -0.00689  -0.00687   0.20244
   D16       -0.01215   0.00013   0.00000   0.00412   0.00412  -0.00803
   D17        3.13296   0.00014   0.00000   0.00447   0.00448   3.13743
   D18        3.14058  -0.00004   0.00000  -0.00193  -0.00194   3.13864
   D19        0.00250  -0.00002   0.00000  -0.00158  -0.00159   0.00092
         Item               Value     Threshold  Converged?
 Maximum Force            0.060252     0.000450     NO 
 RMS     Force            0.014021     0.000300     NO 
 Maximum Displacement     0.199781     0.001800     NO 
 RMS     Displacement     0.047574     0.001200     NO 
 Predicted change in Energy=-5.366890D-03
 GradGradGradGradGradGradGradGradGradGradGradGradGradGradGradGradGradGrad

                          Input orientation:                          
 ---------------------------------------------------------------------
 Center     Atomic      Atomic             Coordinates (Angstroms)
 Number     Number       Type             X           Y           Z
 ---------------------------------------------------------------------
      1          6           0        0.531887   -0.020201   -0.001639
      2          6           0       -0.576052    0.013548   -1.134946
      3          1           0       -0.175491    0.651091   -1.929362
      4          1           0       -0.658223   -1.003146   -1.526828
      5          6           0        0.717356    1.334260    0.562605
      6          6           0        0.131800   -0.953482    1.072696
      7          6           0        1.809895   -0.478111   -0.584977
      8          7           0        2.782359   -0.841200   -1.088480
      9          7           0        0.835451    2.407593    0.968834
     10          7           0       -0.191855   -1.702344    1.888209
     11          6           0       -1.904435    0.515024   -0.644866
     12          1           0       -1.966448    1.575150   -0.414215
     13          6           0       -2.968071   -0.265624   -0.483615
     14          1           0       -2.937793   -1.327464   -0.708035
     15          1           0       -3.910941    0.130555   -0.123816
 ---------------------------------------------------------------------
                    Distance matrix (angstroms):
                    1          2          3          4          5
     1  C    0.000000
     2  C    1.585261   0.000000
     3  H    2.160355   1.094536   0.000000
     4  H    2.169964   1.092698   1.769622   0.000000
     5  C    1.478964   2.509754   2.733825   3.423655   0.000000
     6  C    1.478269   2.511948   3.417812   2.717375   2.415953
     7  C    1.477588   2.497385   2.650325   2.693390   2.407338
     8  N    2.630567   3.465786   3.418024   3.472172   3.423879
     9  N    2.632139   3.485639   3.536502   4.482469   1.153695
    10  N    2.631527   3.497335   4.484726   3.516938   3.435819
    11  C    2.576019   1.502085   2.158169   2.153077   3.000488
    12  H    2.992832   2.211618   2.521326   3.097898   2.866184
    13  C    3.541503   2.494780   3.275524   2.639627   4.151696
    14  H    3.774469   2.749252   3.610628   2.443777   4.696746
    15  H    4.447064   3.486770   4.181453   3.719395   4.831275
                    6          7          8          9         10
     6  C    0.000000
     7  C    2.406213   0.000000
     8  N    3.421805   1.153705   0.000000
     9  N    3.435511   3.419234   4.310180   0.000000
    10  N    1.153520   3.409163   4.295135   4.334996   0.000000
    11  C    3.041839   3.845276   4.899201   3.700381   3.777052
    12  H    3.606595   4.301837   5.370712   3.233639   4.380902
    13  C    3.536164   4.783763   5.810731   4.870573   3.923913
    14  H    3.568371   4.824633   5.753375   5.567757   3.797525
    15  H    4.353221   5.771578   6.831921   5.376525   4.608618
                   11         12         13         14         15
    11  C    0.000000
    12  H    1.086698   0.000000
    13  C    1.329186   2.096787   0.000000
    14  H    2.113429   3.074900   1.085719   0.000000
    15  H    2.108406   2.439722   1.084166   1.847742   0.000000
 Stoichiometry    C7H5N3
 Framework group  C1[X(C7H5N3)]
 Deg. of freedom    39
 Full point group                 C1      NOp   1
 Largest Abelian subgroup         C1      NOp   1
 Largest concise Abelian subgroup C1      NOp   1
                         Standard orientation:                         
 ---------------------------------------------------------------------
 Center     Atomic      Atomic             Coordinates (Angstroms)
 Number     Number       Type             X           Y           Z
 ---------------------------------------------------------------------
      1          6           0        0.520001   -0.015427   -0.022744
      2          6           0       -0.620465    0.033818   -1.122727
      3          1           0       -0.247379    0.690753   -1.914720
      4          1           0       -0.707057   -0.975046   -1.533440
      5          6           0        0.712547    1.328283    0.564372
      6          6           0        0.157488   -0.973870    1.042737
      7          6           0        1.783667   -0.451617   -0.652154
      8          7           0        2.743591   -0.796929   -1.190985
      9          7           0        0.835079    2.393738    0.989583
     10          7           0       -0.137362   -1.741970    1.851250
     11          6           0       -1.937477    0.515140   -0.584148
     12          1           0       -1.999963    1.569731   -0.329497
     13          6           0       -2.990695   -0.276527   -0.408851
     14          1           0       -2.959738   -1.333196   -0.656397
     15          1           0       -3.925420    0.105087   -0.013786
 ---------------------------------------------------------------------
 Rotational constants (GHZ):           1.6429765           1.0535318           0.9625595
 Standard basis: GTBas3 (6D, 7F)
 There are   335 symmetry adapted cartesian basis functions of A   symmetry.
 There are   305 symmetry adapted basis functions of A   symmetry.
   305 basis functions,   475 primitive gaussians,   335 cartesian basis functions
    34 alpha electrons       34 beta electrons
       nuclear repulsion energy       427.4957055357 Hartrees.
 NAtoms=   15 NActive=   15 NUniq=   15 SFac= 1.00D+00 NAtFMM=   60 NAOKFM=F Big=F
 Integral buffers will be    131072 words long.
 Raffenetti 2 integral format.
 Two-electron integral symmetry is turned on.
 One-electron integrals computed using PRISM.
 NBasis=   305 RedAO= T EigKep=  9.81D-05  NBF=   305
 NBsUse=   305 1.00D-06 EigRej= -1.00D+00 NBFU=   305
 Initial guess from the checkpoint file:  "/home/artemiy/opt/gaussian/scr/Gau-11056.chk"
 B after Tr=     0.000000    0.000000    0.000000
         Rot=    0.999773   -0.011092   -0.017445   -0.005065 Ang=  -2.44 deg.
 ExpMin= 1.61D-01 ExpMax= 4.17D+03 ExpMxC= 6.27D+02 IAcc=2 IRadAn=         4 AccDes= 0.00D+00
 Harris functional with IExCor=  402 and IRadAn=       4 diagonalized for initial guess.
 HarFok:  IExCor=  402 AccDes= 0.00D+00 IRadAn=         4 IDoV= 1 UseB2=F ITyADJ=14
 ICtDFT=  3500011 ScaDFX=  1.000000  1.000000  1.000000  1.000000
 FoFCou: FMM=F IPFlag=           0 FMFlag=      100000 FMFlg1=           0
         NFxFlg=           0 DoJE=T BraDBF=F KetDBF=T FulRan=T
         wScrn=  0.000000 ICntrl=       500 IOpCl=  0 I1Cent=   200000004 NGrid=           0
         NMat0=    1 NMatS0=      1 NMatT0=    0 NMatD0=    1 NMtDS0=    0 NMtDT0=    0
 Petite list used in FoFCou.
 Requested convergence on RMS density matrix=1.00D-08 within 128 cycles.
 Requested convergence on MAX density matrix=1.00D-06.
 Requested convergence on             energy=1.00D-06.
 No special actions if energy rises.
 Integral accuracy reduced to 1.0D-05 until final iterations.
 Initial convergence to 1.0D-05 achieved.  Increase integral accuracy.
 SCF Done:  E(RB3LYP) =  -433.923431056     A.U. after   13 cycles
            NFock= 13  Conv=0.35D-08     -V/T= 2.0076
 Calling FoFJK, ICntrl=      2127 FMM=F ISym2X=0 I1Cent= 0 IOpClX= 0 NMat=1 NMatS=1 NMatT=0.
 ***** Axes restored to original set *****
 -------------------------------------------------------------------
 Center     Atomic                   Forces (Hartrees/Bohr)
 Number     Number              X              Y              Z
 -------------------------------------------------------------------
      1        6           0.000204083    0.000381655    0.001277582
      2        6          -0.000785929    0.000498766   -0.000555046
      3        1           0.000272736    0.000051495    0.000173443
      4        1           0.000438500   -0.000217327    0.000596708
      5        6          -0.000617916   -0.000822433   -0.000662986
      6        6           0.000231674    0.000652163   -0.000974269
      7        6          -0.001010326    0.000054702   -0.000682258
      8        7           0.000284695   -0.000054927    0.000005563
      9        7          -0.000012816    0.000213264    0.000127499
     10        7          -0.000343806   -0.000108934    0.000158632
     11        6           0.000669078   -0.000918658    0.000670291
     12        1           0.000663790    0.000347942    0.000263214
     13        6           0.000485187    0.000310629   -0.000295101
     14        1          -0.000288763   -0.000260326    0.000189641
     15        1          -0.000190187   -0.000128010   -0.000292911
 -------------------------------------------------------------------
 Cartesian Forces:  Max     0.001277582 RMS     0.000506172

 GradGradGradGradGradGradGradGradGradGradGradGradGradGradGradGradGradGrad
 Berny optimization.
 Using GEDIIS/GDIIS optimizer.
 FormGI is forming the generalized inverse of G from B-inverse, IUseBI=4.
 Internal  Forces:  Max     0.001427212 RMS     0.000514847
 Search for a local minimum.
 Step number   2 out of a maximum of   67
 All quantities printed in internal units (Hartrees-Bohrs-Radians)
 Mixed Optimization -- En-DIIS/RFO-DIIS
 Update second derivatives using D2CorX and points    1    2
 DE= -5.32D-03 DEPred=-5.37D-03 R= 9.92D-01
 TightC=F SS=  1.41D+00  RLast= 1.22D-01 DXNew= 5.0454D-01 3.6705D-01
 Trust test= 9.92D-01 RLast= 1.22D-01 DXMaxT set to 3.67D-01
 ITU=  1  0
 Use linear search instead of GDIIS.
     Eigenvalues ---    0.00230   0.00820   0.01691   0.02912   0.02912
     Eigenvalues ---    0.04134   0.04586   0.04587   0.04588   0.04588
     Eigenvalues ---    0.04589   0.04598   0.05581   0.08684   0.08860
     Eigenvalues ---    0.09259   0.12841   0.15981   0.16000   0.16000
     Eigenvalues ---    0.21981   0.22159   0.24965   0.25000   0.25098
     Eigenvalues ---    0.26823   0.32902   0.34155   0.34260   0.35016
     Eigenvalues ---    0.35261   0.35337   0.35374   0.35467   0.35556
     Eigenvalues ---    0.57717   1.14552   1.14913   1.14969
 RFO step:  Lambda=-1.05472209D-04 EMin= 2.30212912D-03
 Quartic linear search produced a step of -0.01588.
 Iteration  1 RMS(Cart)=  0.01427203 RMS(Int)=  0.00008426
 Iteration  2 RMS(Cart)=  0.00015610 RMS(Int)=  0.00000676
 Iteration  3 RMS(Cart)=  0.00000001 RMS(Int)=  0.00000676
 Variable       Old X    -DE/DX   Delta X   Delta X   Delta X     New X
                                 (Linear)    (Quad)   (Total)
    R1        2.99571  -0.00143  -0.00062  -0.00423  -0.00485   2.99086
    R2        2.79484  -0.00084  -0.00016  -0.00207  -0.00223   2.79260
    R3        2.79352  -0.00091  -0.00017  -0.00223  -0.00240   2.79112
    R4        2.79224  -0.00036  -0.00013  -0.00078  -0.00091   2.79132
    R5        2.06837   0.00000   0.00004  -0.00005  -0.00001   2.06836
    R6        2.06490  -0.00004   0.00006  -0.00024  -0.00017   2.06473
    R7        2.83853  -0.00122  -0.00019  -0.00336  -0.00354   2.83499
    R8        2.18017   0.00024   0.00082  -0.00107  -0.00025   2.17992
    R9        2.17984   0.00028   0.00082  -0.00104  -0.00022   2.17962
   R10        2.18019   0.00025   0.00082  -0.00106  -0.00024   2.17995
   R11        2.05356   0.00036   0.00005   0.00092   0.00097   2.05453
   R12        2.51180  -0.00001   0.00026  -0.00043  -0.00017   2.51163
   R13        2.05171   0.00021   0.00001   0.00055   0.00056   2.05228
   R14        2.04878   0.00002   0.00001   0.00005   0.00005   2.04883
    A1        1.91866  -0.00070  -0.00011  -0.00268  -0.00279   1.91587
    A2        1.92180  -0.00074  -0.00022  -0.00277  -0.00299   1.91881
    A3        1.90589  -0.00123   0.00010  -0.00470  -0.00461   1.90128
    A4        1.91225   0.00063  -0.00001   0.00187   0.00185   1.91410
    A5        1.90283   0.00105   0.00011   0.00439   0.00450   1.90733
    A6        1.90218   0.00103   0.00013   0.00400   0.00412   1.90630
    A7        1.84991  -0.00001   0.00020  -0.00297  -0.00277   1.84715
    A8        1.86412  -0.00012   0.00002  -0.00302  -0.00298   1.86114
    A9        1.97353  -0.00103  -0.00046  -0.00491  -0.00537   1.96816
   A10        1.88513   0.00007   0.00007   0.00368   0.00373   1.88886
   A11        1.94549   0.00046   0.00014   0.00261   0.00273   1.94821
   A12        1.94029   0.00061   0.00004   0.00443   0.00445   1.94474
   A13        3.10838  -0.00004  -0.00004  -0.00081  -0.00085   3.10753
   A14        3.16430  -0.00012  -0.00001  -0.00248  -0.00249   3.16181
   A15        3.12128  -0.00052  -0.00024  -0.01054  -0.01078   3.11050
   A16        3.12166   0.00030   0.00003   0.00643   0.00646   3.12812
   A17        3.09859   0.00026  -0.00001   0.00566   0.00564   3.10423
   A18        3.16555  -0.00013  -0.00001  -0.00265  -0.00266   3.16289
   A19        2.03242  -0.00077   0.00016  -0.00477  -0.00462   2.02780
   A20        2.15458   0.00030  -0.00019   0.00167   0.00148   2.15605
   A21        2.09617   0.00047   0.00003   0.00313   0.00315   2.09932
   A22        2.12587   0.00034  -0.00001   0.00208   0.00207   2.12793
   A23        2.11949   0.00005  -0.00002   0.00033   0.00031   2.11979
   A24        2.03783  -0.00038   0.00003  -0.00242  -0.00240   2.03543
    D1        1.11678   0.00006  -0.00005   0.00555   0.00550   1.12228
    D2        3.12383   0.00009   0.00013   0.00698   0.00711   3.13093
    D3       -1.01962   0.00012  -0.00009   0.00734   0.00725  -1.01237
    D4       -3.05798  -0.00009  -0.00027   0.00437   0.00410  -3.05387
    D5       -1.05093  -0.00006  -0.00009   0.00581   0.00571  -1.04522
    D6        1.08880  -0.00003  -0.00031   0.00616   0.00585   1.09466
    D7       -0.97004  -0.00004  -0.00019   0.00468   0.00450  -0.96554
    D8        1.03700  -0.00002  -0.00000   0.00612   0.00611   1.04312
    D9       -3.10645   0.00002  -0.00022   0.00647   0.00625  -3.10019
   D10        1.24241  -0.00012   0.00027  -0.02104  -0.02077   1.22163
   D11       -1.89428  -0.00023   0.00036  -0.02821  -0.02783  -1.92212
   D12       -0.83972   0.00027   0.00023  -0.01567  -0.01544  -0.85515
   D13        2.30678   0.00016   0.00032  -0.02284  -0.02250   2.28428
   D14       -2.94405  -0.00055   0.00002  -0.02517  -0.02517  -2.96922
   D15        0.20244  -0.00066   0.00011  -0.03234  -0.03223   0.17021
   D16       -0.00803   0.00019  -0.00007   0.00809   0.00804   0.00001
   D17        3.13743   0.00033  -0.00007   0.01275   0.01268  -3.13307
   D18        3.13864   0.00007   0.00003   0.00069   0.00072   3.13935
   D19        0.00092   0.00021   0.00003   0.00535   0.00537   0.00628
         Item               Value     Threshold  Converged?
 Maximum Force            0.001427     0.000450     NO 
 RMS     Force            0.000515     0.000300     NO 
 Maximum Displacement     0.047542     0.001800     NO 
 RMS     Displacement     0.014316     0.001200     NO 
 Predicted change in Energy=-5.297379D-05
 GradGradGradGradGradGradGradGradGradGradGradGradGradGradGradGradGradGrad

                          Input orientation:                          
 ---------------------------------------------------------------------
 Center     Atomic      Atomic             Coordinates (Angstroms)
 Number     Number       Type             X           Y           Z
 ---------------------------------------------------------------------
      1          6           0        0.534576   -0.020368   -0.001340
      2          6           0       -0.574642    0.005570   -1.130005
      3          1           0       -0.174817    0.640178   -1.927127
      4          1           0       -0.654912   -1.014489   -1.513185
      5          6           0        0.710734    1.336207    0.557689
      6          6           0        0.138281   -0.953222    1.073025
      7          6           0        1.809909   -0.473515   -0.592966
      8          7           0        2.783506   -0.832806   -1.096713
      9          7           0        0.819486    2.410940    0.962445
     10          7           0       -0.196489   -1.698341    1.887314
     11          6           0       -1.897179    0.509844   -0.632776
     12          1           0       -1.946184    1.568253   -0.389057
     13          6           0       -2.969708   -0.261635   -0.487873
     14          1           0       -2.951190   -1.321247   -0.725176
     15          1           0       -3.911932    0.140282   -0.132690
 ---------------------------------------------------------------------
                    Distance matrix (angstroms):
                    1          2          3          4          5
     1  C    0.000000
     2  C    1.582695   0.000000
     3  H    2.155972   1.094528   0.000000
     4  H    2.165371   1.092607   1.771938   0.000000
     5  C    1.477782   2.504216   2.728180   3.417496   0.000000
     6  C    1.477000   2.506170   3.411433   2.705807   2.415525
     7  C    1.477105   2.490787   2.638075   2.686038   2.409831
     8  N    2.630130   3.461378   3.407483   3.468310   3.426083
     9  N    2.630839   3.479619   3.531835   4.476177   1.153562
    10  N    2.630031   3.485761   4.474271   3.498742   3.435031
    11  C    2.567736   1.500211   2.158440   2.154516   2.983503
    12  H    2.971230   2.207286   2.522841   3.098646   2.830085
    13  C    3.546114   2.494007   3.270495   2.641275   4.146317
    14  H    3.790355   2.751783   3.605569   2.447029   4.702923
    15  H    4.451348   3.485727   4.175636   3.721216   4.824511
                    6          7          8          9         10
     6  C    0.000000
     7  C    2.408316   0.000000
     8  N    3.423372   1.153578   0.000000
     9  N    3.434219   3.423496   4.315019   0.000000
    10  N    1.153403   3.417253   4.305106   4.332872   0.000000
    11  C    3.032065   3.835503   4.891498   3.679560   3.757563
    12  H    3.583367   4.280027   5.351245   3.191490   4.349015
    13  C    3.546025   4.785465   5.813466   4.858401   3.923822
    14  H    3.593578   4.837788   5.767439   5.567340   3.815191
    15  H    4.365058   5.773047   6.834115   5.361112   4.611450
                   11         12         13         14         15
    11  C    0.000000
    12  H    1.087212   0.000000
    13  C    1.329095   2.099013   0.000000
    14  H    2.114798   3.077698   1.086017   0.000000
    15  H    2.108529   2.443152   1.084195   1.846654   0.000000
 Stoichiometry    C7H5N3
 Framework group  C1[X(C7H5N3)]
 Deg. of freedom    39
 Full point group                 C1      NOp   1
 Largest Abelian subgroup         C1      NOp   1
 Largest concise Abelian subgroup C1      NOp   1
                         Standard orientation:                         
 ---------------------------------------------------------------------
 Center     Atomic      Atomic             Coordinates (Angstroms)
 Number     Number       Type             X           Y           Z
 ---------------------------------------------------------------------
      1          6           0        0.523849   -0.016856   -0.018766
      2          6           0       -0.612703    0.018274   -1.119647
      3          1           0       -0.236852    0.667967   -1.916282
      4          1           0       -0.695185   -0.996341   -1.516564
      5          6           0        0.704132    1.332229    0.556827
      6          6           0        0.160362   -0.968983    1.050279
      7          6           0        1.787508   -0.451493   -0.648128
      8          7           0        2.751014   -0.795851   -1.180869
      9          7           0        0.815232    2.401388    0.975470
     10          7           0       -0.149267   -1.728956    1.860779
     11          6           0       -1.926206    0.505134   -0.582703
     12          1           0       -1.976623    1.559288   -0.321456
     13          6           0       -2.989487   -0.276327   -0.423820
     14          1           0       -2.969383   -1.332006   -0.677932
     15          1           0       -3.925550    0.113163   -0.039680
 ---------------------------------------------------------------------
 Rotational constants (GHZ):           1.6455174           1.0551122           0.9640577
 Standard basis: GTBas3 (6D, 7F)
 There are   335 symmetry adapted cartesian basis functions of A   symmetry.
 There are   305 symmetry adapted basis functions of A   symmetry.
   305 basis functions,   475 primitive gaussians,   335 cartesian basis functions
    34 alpha electrons       34 beta electrons
       nuclear repulsion energy       427.8423372045 Hartrees.
 NAtoms=   15 NActive=   15 NUniq=   15 SFac= 1.00D+00 NAtFMM=   60 NAOKFM=F Big=F
 Integral buffers will be    131072 words long.
 Raffenetti 2 integral format.
 Two-electron integral symmetry is turned on.
 One-electron integrals computed using PRISM.
 NBasis=   305 RedAO= T EigKep=  9.78D-05  NBF=   305
 NBsUse=   305 1.00D-06 EigRej= -1.00D+00 NBFU=   305
 Initial guess from the checkpoint file:  "/home/artemiy/opt/gaussian/scr/Gau-11056.chk"
 B after Tr=    -0.000000   -0.000000   -0.000000
         Rot=    0.999993    0.002965    0.001990   -0.000880 Ang=   0.42 deg.
 ExpMin= 1.61D-01 ExpMax= 4.17D+03 ExpMxC= 6.27D+02 IAcc=2 IRadAn=         4 AccDes= 0.00D+00
 Harris functional with IExCor=  402 and IRadAn=       4 diagonalized for initial guess.
 HarFok:  IExCor=  402 AccDes= 0.00D+00 IRadAn=         4 IDoV= 1 UseB2=F ITyADJ=14
 ICtDFT=  3500011 ScaDFX=  1.000000  1.000000  1.000000  1.000000
 FoFCou: FMM=F IPFlag=           0 FMFlag=      100000 FMFlg1=           0
         NFxFlg=           0 DoJE=T BraDBF=F KetDBF=T FulRan=T
         wScrn=  0.000000 ICntrl=       500 IOpCl=  0 I1Cent=   200000004 NGrid=           0
         NMat0=    1 NMatS0=      1 NMatT0=    0 NMatD0=    1 NMtDS0=    0 NMtDT0=    0
 Petite list used in FoFCou.
 Requested convergence on RMS density matrix=1.00D-08 within 128 cycles.
 Requested convergence on MAX density matrix=1.00D-06.
 Requested convergence on             energy=1.00D-06.
 No special actions if energy rises.
 Integral accuracy reduced to 1.0D-05 until final iterations.
 Initial convergence to 1.0D-05 achieved.  Increase integral accuracy.
 SCF Done:  E(RB3LYP) =  -433.923488961     A.U. after   11 cycles
            NFock= 11  Conv=0.77D-08     -V/T= 2.0075
 Calling FoFJK, ICntrl=      2127 FMM=F ISym2X=0 I1Cent= 0 IOpClX= 0 NMat=1 NMatS=1 NMatT=0.
 ***** Axes restored to original set *****
 -------------------------------------------------------------------
 Center     Atomic                   Forces (Hartrees/Bohr)
 Number     Number              X              Y              Z
 -------------------------------------------------------------------
      1        6           0.000811253    0.000079238    0.000657271
      2        6          -0.000467963    0.000075572   -0.000224685
      3        1          -0.000160058   -0.000007295   -0.000141963
      4        1           0.000030618   -0.000024387    0.000113235
      5        6          -0.000001314   -0.000720671   -0.000189934
      6        6          -0.000131564    0.000611597   -0.000585001
      7        6          -0.000392702    0.000200220    0.000387927
      8        7           0.000358516   -0.000157625   -0.000340236
      9        7           0.000049367    0.000511253    0.000154643
     10        7          -0.000028641   -0.000392161    0.000388781
     11        6          -0.000271184   -0.000391985   -0.000210556
     12        1           0.000162733   -0.000007083    0.000205053
     13        6           0.000132261    0.000309848   -0.000378746
     14        1          -0.000054534   -0.000004125    0.000061963
     15        1          -0.000036790   -0.000082398    0.000102249
 -------------------------------------------------------------------
 Cartesian Forces:  Max     0.000811253 RMS     0.000318005

 GradGradGradGradGradGradGradGradGradGradGradGradGradGradGradGradGradGrad
 Berny optimization.
 Using GEDIIS/GDIIS optimizer.
 FormGI is forming the generalized inverse of G from B-inverse, IUseBI=4.
 Internal  Forces:  Max     0.000802079 RMS     0.000201346
 Search for a local minimum.
 Step number   3 out of a maximum of   67
 All quantities printed in internal units (Hartrees-Bohrs-Radians)
 Mixed Optimization -- En-DIIS/RFO-DIIS
 Swapping is turned off.
 Update second derivatives using D2CorX and points    1    2    3
 DE= -5.79D-05 DEPred=-5.30D-05 R= 1.09D+00
 TightC=F SS=  1.41D+00  RLast= 6.82D-02 DXNew= 6.1730D-01 2.0465D-01
 Trust test= 1.09D+00 RLast= 6.82D-02 DXMaxT set to 3.67D-01
 ITU=  1  1  0
     Eigenvalues ---    0.00235   0.00538   0.01707   0.02898   0.02981
     Eigenvalues ---    0.04175   0.04578   0.04587   0.04588   0.04588
     Eigenvalues ---    0.04589   0.05060   0.05772   0.08741   0.08920
     Eigenvalues ---    0.09501   0.12784   0.15638   0.16000   0.16012
     Eigenvalues ---    0.21747   0.22536   0.24126   0.25009   0.25130
     Eigenvalues ---    0.30805   0.33753   0.34170   0.34258   0.35052
     Eigenvalues ---    0.35180   0.35308   0.35374   0.35417   0.35504
     Eigenvalues ---    0.57753   1.14909   1.14961   1.16043
 En-DIIS/RFO-DIIS/Sim-DIIS IScMMF=       -3 using points:     3    2
 RFO step:  Lambda=-3.25381690D-05.
 DidBck=F Rises=F RFO-DIIS coefs:    1.72050   -0.72050
 Iteration  1 RMS(Cart)=  0.01746486 RMS(Int)=  0.00013850
 Iteration  2 RMS(Cart)=  0.00019917 RMS(Int)=  0.00000516
 Iteration  3 RMS(Cart)=  0.00000002 RMS(Int)=  0.00000516
 Variable       Old X    -DE/DX   Delta X   Delta X   Delta X     New X
                                 (Linear)    (Quad)   (Total)
    R1        2.99086   0.00080  -0.00349   0.00543   0.00194   2.99280
    R2        2.79260  -0.00020  -0.00161   0.00034  -0.00127   2.79133
    R3        2.79112  -0.00024  -0.00173   0.00029  -0.00143   2.78969
    R4        2.79132  -0.00006  -0.00066   0.00021  -0.00045   2.79088
    R5        2.06836   0.00004  -0.00001   0.00013   0.00012   2.06848
    R6        2.06473  -0.00002  -0.00012  -0.00000  -0.00013   2.06460
    R7        2.83499  -0.00007  -0.00255   0.00126  -0.00129   2.83369
    R8        2.17992   0.00054  -0.00018   0.00047   0.00029   2.18021
    R9        2.17962   0.00054  -0.00016   0.00046   0.00030   2.17992
   R10        2.17995   0.00050  -0.00017   0.00043   0.00026   2.18021
   R11        2.05453   0.00003   0.00070  -0.00031   0.00039   2.05492
   R12        2.51163  -0.00019  -0.00012  -0.00033  -0.00045   2.51118
   R13        2.05228  -0.00001   0.00041  -0.00027   0.00014   2.05242
   R14        2.04883   0.00003   0.00004   0.00008   0.00012   2.04895
    A1        1.91587   0.00018  -0.00201   0.00196  -0.00006   1.91582
    A2        1.91881  -0.00021  -0.00215   0.00038  -0.00178   1.91704
    A3        1.90128  -0.00014  -0.00332   0.00131  -0.00202   1.89927
    A4        1.91410   0.00001   0.00133  -0.00071   0.00062   1.91472
    A5        1.90733  -0.00002   0.00324  -0.00195   0.00128   1.90861
    A6        1.90630   0.00017   0.00297  -0.00100   0.00196   1.90826
    A7        1.84715  -0.00002  -0.00199   0.00154  -0.00045   1.84669
    A8        1.86114  -0.00009  -0.00215   0.00108  -0.00107   1.86008
    A9        1.96816   0.00031  -0.00387   0.00401   0.00014   1.96830
   A10        1.88886   0.00004   0.00269  -0.00182   0.00085   1.88972
   A11        1.94821  -0.00015   0.00196  -0.00223  -0.00028   1.94793
   A12        1.94474  -0.00010   0.00321  -0.00245   0.00074   1.94548
   A13        3.10753  -0.00003  -0.00061  -0.00032  -0.00093   3.10660
   A14        3.16181   0.00007  -0.00179   0.00272   0.00093   3.16274
   A15        3.11050   0.00024  -0.00777   0.01020   0.00244   3.11293
   A16        3.12812  -0.00017   0.00465  -0.00677  -0.00212   3.12600
   A17        3.10423  -0.00028   0.00407  -0.00903  -0.00496   3.09928
   A18        3.16289   0.00008  -0.00192   0.00308   0.00116   3.16405
   A19        2.02780  -0.00020  -0.00333   0.00069  -0.00264   2.02516
   A20        2.15605   0.00019   0.00106   0.00038   0.00144   2.15749
   A21        2.09932   0.00001   0.00227  -0.00107   0.00120   2.10052
   A22        2.12793   0.00004   0.00149  -0.00059   0.00090   2.12883
   A23        2.11979   0.00007   0.00022   0.00033   0.00055   2.12035
   A24        2.03543  -0.00010  -0.00173   0.00030  -0.00143   2.03400
    D1        1.12228  -0.00003   0.00396  -0.01360  -0.00964   1.11264
    D2        3.13093  -0.00003   0.00512  -0.01447  -0.00936   3.12158
    D3       -1.01237  -0.00001   0.00522  -0.01430  -0.00907  -1.02145
    D4       -3.05387  -0.00003   0.00296  -0.01299  -0.01003  -3.06391
    D5       -1.04522  -0.00003   0.00412  -0.01386  -0.00975  -1.05497
    D6        1.09466  -0.00002   0.00422  -0.01369  -0.00947   1.08519
    D7       -0.96554  -0.00003   0.00324  -0.01319  -0.00994  -0.97548
    D8        1.04312  -0.00003   0.00440  -0.01406  -0.00966   1.03346
    D9       -3.10019  -0.00002   0.00451  -0.01388  -0.00937  -3.10957
   D10        1.22163  -0.00014  -0.01497  -0.01121  -0.02618   1.19545
   D11       -1.92212  -0.00012  -0.02006  -0.00679  -0.02684  -1.94896
   D12       -0.85515  -0.00023  -0.01112  -0.01438  -0.02550  -0.88066
   D13        2.28428  -0.00020  -0.01621  -0.00996  -0.02616   2.25812
   D14       -2.96922  -0.00010  -0.01813  -0.00878  -0.02693  -2.99615
   D15        0.17021  -0.00008  -0.02322  -0.00436  -0.02759   0.14263
   D16        0.00001   0.00003   0.00579  -0.00267   0.00312   0.00313
   D17       -3.13307  -0.00010   0.00914  -0.00939  -0.00024  -3.13331
   D18        3.13935   0.00005   0.00052   0.00192   0.00243  -3.14140
   D19        0.00628  -0.00008   0.00387  -0.00479  -0.00093   0.00535
         Item               Value     Threshold  Converged?
 Maximum Force            0.000802     0.000450     NO 
 RMS     Force            0.000201     0.000300     YES
 Maximum Displacement     0.070603     0.001800     NO 
 RMS     Displacement     0.017432     0.001200     NO 
 Predicted change in Energy=-1.635287D-05
 GradGradGradGradGradGradGradGradGradGradGradGradGradGradGradGradGradGrad

                          Input orientation:                          
 ---------------------------------------------------------------------
 Center     Atomic      Atomic             Coordinates (Angstroms)
 Number     Number       Type             X           Y           Z
 ---------------------------------------------------------------------
      1          6           0        0.538077   -0.017510    0.002083
      2          6           0       -0.575494    0.005288   -1.123799
      3          1           0       -0.180643    0.643204   -1.920847
      4          1           0       -0.651654   -1.014810   -1.507524
      5          6           0        0.718999    1.340870    0.553379
      6          6           0        0.140925   -0.943701    1.080845
      7          6           0        1.808793   -0.477137   -0.593873
      8          7           0        2.776380   -0.840866   -1.106255
      9          7           0        0.830393    2.417984    0.951470
     10          7           0       -0.191167   -1.685792    1.899209
     11          6           0       -1.898043    0.503109   -0.622184
     12          1           0       -1.941021    1.555979   -0.353682
     13          6           0       -2.975798   -0.264962   -0.502293
     14          1           0       -2.962445   -1.319329   -0.762537
     15          1           0       -3.917863    0.133321   -0.142426
 ---------------------------------------------------------------------
                    Distance matrix (angstroms):
                    1          2          3          4          5
     1  C    0.000000
     2  C    1.583720   0.000000
     3  H    2.156563   1.094591   0.000000
     4  H    2.165406   1.092541   1.772484   0.000000
     5  C    1.477111   2.504480   2.723581   3.416905   0.000000
     6  C    1.476241   2.504853   3.410547   2.707932   2.414882
     7  C    1.476868   2.489654   2.640811   2.679113   2.410184
     8  N    2.629891   3.457071   3.407347   3.455819   3.427415
     9  N    2.630288   3.479132   3.524521   4.475175   1.153716
    10  N    2.629458   3.485116   4.474055   3.502585   3.435163
    11  C    2.568157   1.499526   2.157687   2.154389   2.988763
    12  H    2.957763   2.205082   2.527468   3.098835   2.818641
    13  C    3.558503   2.494146   3.263426   2.640911   4.164693
    14  H    3.812221   2.753662   3.596059   2.446936   4.728776
    15  H    4.460833   3.485816   4.170081   3.721535   4.841778
                    6          7          8          9         10
     6  C    0.000000
     7  C    2.409180   0.000000
     8  N    3.426310   1.153715   0.000000
     9  N    3.434098   3.424482   4.317546   0.000000
    10  N    1.153562   3.417038   4.307325   4.333910   0.000000
    11  C    3.025055   3.834360   4.887824   3.686122   3.749951
    12  H    3.555385   4.272278   5.344633   3.182328   4.318169
    13  C    3.561036   4.790168   5.812399   4.878393   3.942098
    14  H    3.629058   4.847932   5.768984   5.593832   3.859944
    15  H    4.373800   5.776768   6.833073   5.381657   4.622306
                   11         12         13         14         15
    11  C    0.000000
    12  H    1.087417   0.000000
    13  C    1.328858   2.099684   0.000000
    14  H    2.115167   3.078614   1.086092   0.000000
    15  H    2.108692   2.444686   1.084260   1.845956   0.000000
 Stoichiometry    C7H5N3
 Framework group  C1[X(C7H5N3)]
 Deg. of freedom    39
 Full point group                 C1      NOp   1
 Largest Abelian subgroup         C1      NOp   1
 Largest concise Abelian subgroup C1      NOp   1
                         Standard orientation:                         
 ---------------------------------------------------------------------
 Center     Atomic      Atomic             Coordinates (Angstroms)
 Number     Number       Type             X           Y           Z
 ---------------------------------------------------------------------
      1          6           0        0.526144   -0.016980   -0.015987
      2          6           0       -0.616467    0.008255   -1.112332
      3          1           0       -0.245063    0.652787   -1.915307
      4          1           0       -0.698536   -1.009725   -1.500439
      5          6           0        0.715958    1.338656    0.539059
      6          6           0        0.160927   -0.951554    1.066822
      7          6           0        1.782720   -0.467589   -0.647736
      8          7           0        2.738069   -0.824084   -1.187440
      9          7           0        0.833396    2.413707    0.940973
     10          7           0       -0.146770   -1.700131    1.888807
     11          6           0       -1.927469    0.497433   -0.573298
     12          1           0       -1.967629    1.548412   -0.297062
     13          6           0       -2.998667   -0.275838   -0.430290
     14          1           0       -2.987900   -1.328489   -0.697509
     15          1           0       -3.932614    0.116271   -0.043492
 ---------------------------------------------------------------------
 Rotational constants (GHZ):           1.6424427           1.0529317           0.9635249
 Standard basis: GTBas3 (6D, 7F)
 There are   335 symmetry adapted cartesian basis functions of A   symmetry.
 There are   305 symmetry adapted basis functions of A   symmetry.
   305 basis functions,   475 primitive gaussians,   335 cartesian basis functions
    34 alpha electrons       34 beta electrons
       nuclear repulsion energy       427.7440506758 Hartrees.
 NAtoms=   15 NActive=   15 NUniq=   15 SFac= 1.00D+00 NAtFMM=   60 NAOKFM=F Big=F
 Integral buffers will be    131072 words long.
 Raffenetti 2 integral format.
 Two-electron integral symmetry is turned on.
 One-electron integrals computed using PRISM.
 NBasis=   305 RedAO= T EigKep=  9.77D-05  NBF=   305
 NBsUse=   305 1.00D-06 EigRej= -1.00D+00 NBFU=   305
 Initial guess from the checkpoint file:  "/home/artemiy/opt/gaussian/scr/Gau-11056.chk"
 B after Tr=     0.000000    0.000000    0.000000
         Rot=    0.999976    0.006457   -0.001579    0.001792 Ang=   0.79 deg.
 ExpMin= 1.61D-01 ExpMax= 4.17D+03 ExpMxC= 6.27D+02 IAcc=2 IRadAn=         4 AccDes= 0.00D+00
 Harris functional with IExCor=  402 and IRadAn=       4 diagonalized for initial guess.
 HarFok:  IExCor=  402 AccDes= 0.00D+00 IRadAn=         4 IDoV= 1 UseB2=F ITyADJ=14
 ICtDFT=  3500011 ScaDFX=  1.000000  1.000000  1.000000  1.000000
 FoFCou: FMM=F IPFlag=           0 FMFlag=      100000 FMFlg1=           0
         NFxFlg=           0 DoJE=T BraDBF=F KetDBF=T FulRan=T
         wScrn=  0.000000 ICntrl=       500 IOpCl=  0 I1Cent=   200000004 NGrid=           0
         NMat0=    1 NMatS0=      1 NMatT0=    0 NMatD0=    1 NMtDS0=    0 NMtDT0=    0
 Petite list used in FoFCou.
 Requested convergence on RMS density matrix=1.00D-08 within 128 cycles.
 Requested convergence on MAX density matrix=1.00D-06.
 Requested convergence on             energy=1.00D-06.
 No special actions if energy rises.
 Integral accuracy reduced to 1.0D-05 until final iterations.
 Initial convergence to 1.0D-05 achieved.  Increase integral accuracy.
 SCF Done:  E(RB3LYP) =  -433.923510714     A.U. after   11 cycles
            NFock= 11  Conv=0.79D-08     -V/T= 2.0075
 Calling FoFJK, ICntrl=      2127 FMM=F ISym2X=0 I1Cent= 0 IOpClX= 0 NMat=1 NMatS=1 NMatT=0.
 ***** Axes restored to original set *****
 -------------------------------------------------------------------
 Center     Atomic                   Forces (Hartrees/Bohr)
 Number     Number              X              Y              Z
 -------------------------------------------------------------------
      1        6           0.000304033    0.000010372    0.000122405
      2        6          -0.000097788   -0.000051158   -0.000130557
      3        1          -0.000104524   -0.000052985   -0.000177045
      4        1          -0.000053772   -0.000014421   -0.000009163
      5        6           0.000061013   -0.000082562   -0.000012515
      6        6           0.000069655   -0.000076640    0.000052797
      7        6          -0.000130546    0.000137903    0.000090188
      8        7           0.000151554   -0.000077582   -0.000044779
      9        7           0.000034198    0.000170218    0.000067306
     10        7          -0.000026171   -0.000073276    0.000111138
     11        6          -0.000093320    0.000027767   -0.000096153
     12        1          -0.000112836   -0.000066200    0.000123167
     13        6          -0.000070317    0.000066074   -0.000068074
     14        1           0.000056836    0.000061292   -0.000034808
     15        1           0.000011987    0.000021198    0.000006095
 -------------------------------------------------------------------
 Cartesian Forces:  Max     0.000304033 RMS     0.000095600

 GradGradGradGradGradGradGradGradGradGradGradGradGradGradGradGradGradGrad
 Berny optimization.
 Using GEDIIS/GDIIS optimizer.
 FormGI is forming the generalized inverse of G from B-inverse, IUseBI=4.
 Internal  Forces:  Max     0.000601512 RMS     0.000124841
 Search for a local minimum.
 Step number   4 out of a maximum of   67
 All quantities printed in internal units (Hartrees-Bohrs-Radians)
 Mixed Optimization -- En-DIIS/RFO-DIIS
 Swapping is turned off.
 Update second derivatives using D2CorX and points    1    2    3    4
 DE= -2.18D-05 DEPred=-1.64D-05 R= 1.33D+00
 TightC=F SS=  1.41D+00  RLast= 7.18D-02 DXNew= 6.1730D-01 2.1526D-01
 Trust test= 1.33D+00 RLast= 7.18D-02 DXMaxT set to 3.67D-01
 ITU=  1  1  1  0
     Eigenvalues ---    0.00250   0.00266   0.01711   0.02930   0.02985
     Eigenvalues ---    0.04177   0.04585   0.04588   0.04588   0.04588
     Eigenvalues ---    0.04643   0.05468   0.05765   0.08786   0.08953
     Eigenvalues ---    0.09626   0.12792   0.15992   0.16002   0.16561
     Eigenvalues ---    0.21989   0.22486   0.24514   0.25092   0.25338
     Eigenvalues ---    0.30456   0.33989   0.34163   0.34267   0.35048
     Eigenvalues ---    0.35262   0.35350   0.35399   0.35471   0.39347
     Eigenvalues ---    0.57678   1.14909   1.14966   1.15737
 En-DIIS/RFO-DIIS/Sim-DIIS IScMMF=       -3 using points:     4    3    2
 RFO step:  Lambda=-1.75378631D-05.
 DidBck=F Rises=F RFO-DIIS coefs:    1.45671    0.03213   -0.48884
 Iteration  1 RMS(Cart)=  0.01427143 RMS(Int)=  0.00009106
 Iteration  2 RMS(Cart)=  0.00013562 RMS(Int)=  0.00000470
 Iteration  3 RMS(Cart)=  0.00000001 RMS(Int)=  0.00000470
 Variable       Old X    -DE/DX   Delta X   Delta X   Delta X     New X
                                 (Linear)    (Quad)   (Total)
    R1        2.99280   0.00060  -0.00149   0.00360   0.00212   2.99491
    R2        2.79133   0.00011  -0.00167   0.00107  -0.00060   2.79073
    R3        2.78969   0.00020  -0.00183   0.00136  -0.00046   2.78923
    R4        2.79088  -0.00002  -0.00065   0.00026  -0.00039   2.79049
    R5        2.06848   0.00006   0.00005   0.00016   0.00021   2.06869
    R6        2.06460   0.00002  -0.00014   0.00011  -0.00003   2.06457
    R7        2.83369   0.00020  -0.00232   0.00174  -0.00058   2.83311
    R8        2.18021   0.00019   0.00001   0.00015   0.00016   2.18036
    R9        2.17992   0.00013   0.00003   0.00010   0.00012   2.18004
   R10        2.18021   0.00017   0.00000   0.00013   0.00014   2.18034
   R11        2.05492  -0.00003   0.00065  -0.00040   0.00025   2.05517
   R12        2.51118  -0.00009  -0.00029  -0.00010  -0.00039   2.51079
   R13        2.05242  -0.00005   0.00034  -0.00032   0.00002   2.05244
   R14        2.04895  -0.00000   0.00008  -0.00002   0.00006   2.04901
    A1        1.91582   0.00011  -0.00139   0.00132  -0.00008   1.91574
    A2        1.91704   0.00017  -0.00227   0.00180  -0.00048   1.91656
    A3        1.89927   0.00008  -0.00317   0.00170  -0.00148   1.89778
    A4        1.91472  -0.00009   0.00119  -0.00068   0.00050   1.91522
    A5        1.90861  -0.00014   0.00278  -0.00225   0.00053   1.90914
    A6        1.90826  -0.00013   0.00291  -0.00190   0.00100   1.90926
[...]
    12  H   -0.001261   0.000145  -0.000614  -0.000148   0.404586   0.420672
    13  C   -0.002587   0.000284   0.001069  -0.000204   0.728215  -0.019786
    14  H    0.000009  -0.000025  -0.000066  -0.000524  -0.027407   0.004547
    15  H    0.000027   0.000004   0.000014   0.000026  -0.023659  -0.005309
              13         14         15
     1  C    0.000340  -0.002701   0.000076
     2  C   -0.085124  -0.008316   0.005432
     3  H    0.000271   0.000615  -0.000378
     4  H   -0.000870   0.003165  -0.000044
     5  C    0.004716   0.000361  -0.000218
     6  C    0.004335   0.001576  -0.000187
     7  C   -0.002587   0.000009   0.000027
     8  N    0.000284  -0.000025   0.000004
     9  N    0.001069  -0.000066   0.000014
    10  N   -0.000204  -0.000524   0.000026
    11  C    0.728215  -0.027407  -0.023659
    12  H   -0.019786   0.004547  -0.005309
    13  C    4.931087   0.418777   0.409340
    14  H    0.418777   0.457140  -0.024349
    15  H    0.409340  -0.024349   0.430754
 Mulliken charges:
               1
     1  C    0.634804
     2  C   -0.316107
     3  H    0.227318
     4  H    0.214674
     5  C    0.106148
     6  C    0.123597
     7  C    0.155582
     8  N   -0.375417
     9  N   -0.363475
    10  N   -0.370590
    11  C   -0.261174
    12  H    0.228835
    13  C   -0.389864
    14  H    0.177196
    15  H    0.208473
 Sum of Mulliken charges =  -0.00000
 Mulliken charges with hydrogens summed into heavy atoms:
               1
     1  C    0.634804
     2  C    0.125885
     5  C    0.106148
     6  C    0.123597
     7  C    0.155582
     8  N   -0.375417
     9  N   -0.363475
    10  N   -0.370590
    11  C   -0.032339
    13  C   -0.004196
 Electronic spatial extent (au):  <R**2>=           1394.4923
 Charge=              0.0000 electrons
 Dipole moment (field-independent basis, Debye):
    X=             -3.6510    Y=              0.0035    Z=             -2.6019  Tot=              4.4833
 Quadrupole moment (field-independent basis, Debye-Ang):
   XX=            -61.9568   YY=            -68.2787   ZZ=            -64.9278
   XY=              0.6974   XZ=              4.2545   YZ=              0.7486
 Traceless Quadrupole moment (field-independent basis, Debye-Ang):
   XX=              3.0977   YY=             -3.2243   ZZ=              0.1266
   XY=              0.6974   XZ=              4.2545   YZ=              0.7486
 Octapole moment (field-independent basis, Debye-Ang**2):
  XXX=            -50.8130  YYY=            -14.8459  ZZZ=            -12.0195  XYY=            -13.6472
  XXY=              4.8523  XXZ=             15.6290  XZZ=             -2.9722  YZZ=              8.3687
  YYZ=            -18.4557  XYZ=            -10.8490
 Hexadecapole moment (field-independent basis, Debye-Ang**3):
 XXXX=          -1016.7719 YYYY=           -590.4475 ZZZZ=           -436.7989 XXXY=             34.0335
 XXXZ=             28.9012 YYYX=            -17.7939 YYYZ=             -5.1171 ZZZX=              6.0221
 ZZZY=             15.0529 XXYY=           -261.6483 XXZZ=           -270.6047 YYZZ=           -182.0540
 XXYZ=             -7.6072 YYXZ=              0.7309 ZZXY=              4.3972
 N-N= 4.274358051758D+02 E-N=-1.860203905815D+03  KE= 4.307256186690D+02
 1\1\GINC-ARTEMIY-VIRTUALBOX\SP\RHF\GFHFB2\C7H5N3\ARTEMIY\17-Jun-2022\0
 \\#N Geom=AllCheck Guess=TCheck SCRF=Check HF/GFHFB2 SCF=Tight\\Title 
 Card Required\\0,1\C,0,0.5427106482,-0.0159402085,0.0049595449\C,0,-0.
 5787660339,0.0003980096,-1.1149438395\H,0,-0.1903260666,0.6359907864,-
 1.9173201722\H,0,-0.6552815077,-1.0210977719,-1.4949724989\C,0,0.72643
 67481,1.3451524515,0.5487797121\C,0,0.1537604071,-0.9376221481,1.09090
 21241\C,0,1.810002897,-0.4767460011,-0.597035341\N,0,2.7750988345,-0.8
 424194153,-1.1128932884\N,0,0.8402121276,2.4240864377,0.9415084998\N,0
 ,-0.1715494006,-1.6754821238,1.9158767313\C,0,-1.9003214348,0.49665225
 39,-0.6090662124\H,0,-1.9370740588,1.5421357893,-0.3121358777\C,0,-2.9
 866086909,-0.2634794913,-0.5212338259\H,0,-2.9803545984,-1.3102699819,
 -0.8104568511\H,0,-3.9284998709,0.1342914135,-0.160403705\\Version=ES6
 4L-G16RevA.03\State=1-A\HF=-431.432149\RMSD=6.644e-09\Dipole=-1.404204
 2,0.0038435,-1.0674252\Quadrupole=2.10972,-2.3980295,0.2883094,0.49282
 02,3.2259151,0.5671489\PG=C01 [X(C7H5N3)]\\@


 The mind is not a vessel to be filled but a fire to be kindled.
                                  -- Plutarch
 Diagonal vibrational polarizability:
        0.0000000       0.0000000       0.0000000
 
 Temperature=              298.150000 Pressure=                      1.000000
 E(ZPE)=                     0.102485 E(Thermal)=                    0.112797
 E(QCISD(T))=             -432.714210 E(Empiric)=                   -0.166728
 E(CCSD(T))=                -0.166728 E(Empiric)=                   -0.025726
 DE(Plus)=                  -0.285789 DE(2DF)=                      -0.590078
 E(Delta-G3XP)=             -0.038396 DE(HF)=                     -433.718442
 G4(0 K)=                 -433.708130 G4 Energy=                  -433.707186
 G4 Enthalpy=             -433.754629 G4 Free Energy=    
 1\1\GINC-ARTEMIY-VIRTUALBOX\Mixed\G4\G4\C7H5N3\ARTEMIY\17-Jun-2022\0\\
 # g4 geom=gic\\Title Card Required\\0,1\C,0,0.5427106482,-0.0159402085
 ,0.0049595449\C,0,-0.5787660339,0.0003980096,-1.1149438395\H,0,-0.1903
 260666,0.6359907864,-1.9173201722\H,0,-0.6552815077,-1.0210977719,-1.4
 949724989\C,0,0.7264367481,1.3451524515,0.5487797121\C,0,0.1537604071,
 -0.9376221481,1.0909021241\C,0,1.810002897,-0.4767460011,-0.597035341\
 N,0,2.7750988345,-0.8424194153,-1.1128932884\N,0,0.8402121276,2.424086
 4377,0.9415084998\N,0,-0.1715494006,-1.6754821238,1.9158767313\C,0,-1.
 9003214348,0.4966522539,-0.6090662124\H,0,-1.9370740588,1.5421357893,-
 0.3121358777\C,0,-2.9866086909,-0.2634794913,-0.5212338259\H,0,-2.9803
 545984,-1.3102699819,-0.8104568511\H,0,-3.9284998709,0.1342914135,-0.1
 60403705\\Version=ES64L-G16RevA.03\State=1-A\MP2/GTBas1=-432.614834\MP
 4/GTBas1=-432.7262528\CCSD(T)/G3Bas1=-432.7142098\MP2/GTBas2=-432.6396
 862\MP4/GTBas2=-432.7519789\MP2/GTBas3=-432.8856757\MP4/GTBas3=-433.01
 2042\HF/GTLargeXP=-431.395136\MP2/GTLargeXP=-433.500606\HF/GFHFB1=-431
 .4264733\HF/GFHFB2=-431.432149\G4=-433.718442\FreqCoord=1.0255744899,-
 0.0301226284,0.0093721816,-1.0937092944,0.0007521291,-2.1069385009,-0.
 3596641402,1.2018484041,-3.6232100186,-1.238302584,-1.9295951353,-2.82
 50885867,1.3727665007,2.5419697292,1.0370433586,0.2905650583,-1.771849
 0682,2.0615062432,3.42040976,-0.9009193731,-1.1282332812,5.2441767658,
 -1.5919419769,-2.1030635209,1.5877708077,4.5808594695,1.7791932085,-0.
 324181384,-3.1662023406,3.6204823106,-3.5910870603,0.9385367389,-1.150
 9683332,-3.6605394541,2.9142142887,-0.5898513226,-5.6438724671,-0.4979
 040781,-0.9849891779,-5.632053945,-2.4760514151,-1.5315414844,-7.42378
 88363,0.2537739925,-0.3031190718\PG=C01 [X(C7H5N3)]\NImag=0\\0.4040346
 9,0.00157371,0.48100960,-0.07508935,0.00080757,0.41039817,-0.07206719,
 0.00096210,-0.00774306,0.43159214,-0.00168423,-0.06940018,-0.00347322,
 0.03018715,0.60950027,-0.01720410,-0.00039054,-0.08512812,-0.08845326,
 0.00179596,0.46411452,0.00282544,0.01378716,-0.02073381,-0.07587000,-0
 .05786888,0.07233503,0.09071227,-0.00055467,-0.00045505,-0.00130204,-0
 .05313682,-0.14130899,0.11136433,0.05832255,0.14676674,0.00247172,0.01
 407871,-0.02198477,0.06839398,0.11034143,-0.18341595,-0.07132090,-0.12
 256516,0.20194305,-0.00590348,-0.02037864,-0.00992719,-0.04773145,-0.0
 1831873,-0.00526739,-0.00101718,-0.00934899,-0.00380341,0.05751475,0.0
 0087466,0.00132430,0.00170246,-0.02025066,-0.28522711,-0.08573150,-0.0
 0092780,-0.01537942,-0.00689486,0.01916595,0.30502094,-0.00594261,-0.0
 2091408,-0.01207502,-0.00422940,-0.08225439,-0.07783718,0.00207441,0.0
 2148924,0.00953675,0.00951801,0.09332956,0.08395843,-0.06266677,-0.020
 33947,-0.00601894,-0.00432914,-0.02402262,-0.01221762,0.00097860,0.000
 35652,0.00082035,-0.00319152,0.00090387,-0.00354856,0.11842358,-0.0177
 0910,-0.22414145,-0.06036899,-0.01383301,-0.00190028,-0.01317766,0.000
 94584,0.00080423,0.00141028,0.00088940,-0.00025128,0.00084208,0.142412
 59,1.39366401,-0.00492291,-0.06280598,-0.08296204,-0.00958632,-0.02479
 757,-0.01513034,0.00062904,-0.00055610,0.00046823,-0.00344429,0.000600
 79,-0.00279533,0.05320509,0.47679532,0.27839352,-0.07569881,-0.0325659
 0,0.03866153,0.01106859,0.01458536,-0.01575797,-0.00413354,-0.00048631
 ,-0.00373665,0.00058026,-0.00006879,0.00026869,-0.00190739,-0.00912883
 ,0.00231364,0.21615064,-0.03479193,-0.13738356,0.08603981,0.00822608,-
 0.00111971,0.00989521,-0.00076638,0.00025116,-0.00037742,-0.00051865,0
 .00071380,-0.00164085,-0.01120628,-0.03652531,0.02489480,0.26492374,0.
 70641373,0.04231816,0.08708547,-0.15855084,-0.00454932,0.01789210,-0.0
 3072054,-0.00334014,0.00002044,-0.00245300,0.00106576,0.00000686,0.000
 94222,-0.00357986,-0.00014138,0.00909692,-0.29789702,-0.68062589,0.869
 12523,-0.19512573,0.05086125,0.07222924,-0.03692317,0.01007855,-0.0002
 6390,0.00160696,-0.00001430,0.00140130,0.00097855,-0.00018243,0.001104
 75,0.00024304,0.00898040,0.00169456,-0.01669084,-0.00278116,0.01286373
 ,1.14901513,0.05017140,-0.08036666,-0.02567807,0.00584054,-0.00029610,
 0.00318758,0.00060073,-0.00007362,-0.00024186,-0.00145995,0.00034355,-
 0.00025999,0.03160974,-0.01984297,-0.01793463,-0.01846969,0.00806640,0
 .00882692,-0.39457424,0.25064230,0.06930640,-0.02495645,-0.09407636,-0
 .01467812,0.00729918,0.01383968,-0.00094968,0.00055791,0.00001771,-0.0
 0052072,-0.00013688,0.00023179,0.01338991,-0.01359468,-0.00937052,0.02
 927768,-0.00256170,-0.01967599,-0.54970886,0.20705248,0.39056523,0.006
 97487,0.00268013,0.00352921,0.00305300,-0.00016467,0.00275300,-0.00020
 166,0.00004592,-0.00030502,-0.00010740,-0.00002080,-0.00015757,-0.0022
 9695,0.00092245,0.00166454,-0.00086306,0.00076920,0.00095771,-0.901839
 58,0.32877123,0.46138427,0.89473031,0.00263458,0.01306036,-0.00109677,
 -0.00074710,-0.00013250,-0.00175749,-0.00011187,0.00000479,-0.00002319
 ,0.00042090,0.00012448,0.00020139,-0.00243814,0.00169697,0.00097762,0.
 00312259,-0.00063712,-0.00145401,0.32937326,-0.15639801,-0.17500790,-0
 .33256183,0.14185200,0.00393156,-0.00123680,0.01315257,0.00004784,-0.0
 0112775,-0.00453737,0.00027653,-0.00037096,0.00044416,0.00035844,0.000
 27117,0.00014570,-0.00003513,0.00047823,0.00061298,-0.00150351,0.00006
 381,0.00136602,0.46385905,-0.17562329,-0.27896684,-0.46814992,0.177346
 97,0.26606230,0.01480214,-0.00121536,0.00016224,-0.00044063,0.00276916
 ,0.00067509,-0.00012001,-0.00002687,-0.00004275,0.00051990,-0.00025229
 ,0.00056581,-0.04417973,-0.11478976,-0.04251120,0.00072394,0.00057283,
 0.00051391,0.00029025,-0.00370669,-0.00156010,0.00003973,0.00061840,0.
 00024551,0.02862765,-0.00151406,0.00607874,-0.00355746,0.00393604,-0.0
 0330384,0.00275938,-0.00022538,0.00002676,-0.00055306,-0.00083353,0.00
 088028,-0.00080750,-0.11639966,-1.11595255,-0.39634770,0.00046555,0.00
 027999,-0.00047756,-0.00060668,-0.00117297,-0.00024870,-0.00106044,0.0
 0028065,0.00046644,0.11626115,1.11202004,-0.00005779,-0.00350601,0.013
 01322,0.00081096,0.00167337,0.00145416,-0.00000425,0.00011685,0.000188
 16,0.00016277,-0.00006829,0.00034077,-0.04291125,-0.39474073,-0.176995
 54,-0.00047365,-0.00417527,-0.00084065,0.00020214,0.00033526,0.0008920
 6,-0.00050728,-0.00005085,0.00010809,0.04271580,0.39969606,0.16215961,
 0.01441908,-0.00202255,0.00315790,-0.00421134,-0.00235642,0.00100958,0
 .00115382,0.00038941,0.00070168,0.00004260,0.00012983,0.00015205,0.000
 45685,0.00012062,0.00048354,-0.12916668,-0.22377655,0.25014052,0.00141
 511,0.00133163,-0.00212336,0.00024045,-0.00050957,0.00024725,0.0000068
 2,0.00024225,0.00016227,0.11559082,-0.00093934,0.01037965,0.00406361,-
 0.00337838,-0.00129980,-0.00083224,0.00083071,0.00040629,0.00030612,0.
 00028365,0.00008178,0.00044264,0.00017806,0.00208758,-0.00126383,-0.22
 352036,-0.53970181,0.56904797,-0.00065332,-0.00171973,0.00232239,0.000
 74847,-0.00006390,-0.00054901,-0.00000862,0.00046848,0.00082674,0.2261
 7922,0.52914384,0.00172159,0.00450492,0.00924437,0.00196968,-0.0002076
 8,0.00251820,-0.00026534,-0.00008263,0.00013794,-0.00013216,-0.0000161
 1,0.00000950,0.00131748,0.00244568,-0.00232145,0.24931334,0.56785416,-
 0.66896611,0.00022234,0.00061749,0.00018222,-0.00085769,0.00046906,0.0
 0026724,-0.00024159,-0.00108525,-0.00009780,-0.25295763,-0.57444613,0.
 65924852,-0.03202544,0.00612619,-0.00202962,-0.17107215,0.04085936,0.0
 4877780,-0.01361435,0.00331332,0.00501956,0.00129683,0.00025025,-0.000
 43816,-0.00052200,0.00059873,0.00072942,0.00063772,-0.00066483,0.00144
 470,-0.00306208,0.00010854,-0.00330414,0.00038084,0.00016876,0.0007629
 5,-0.00061215,0.00052288,0.00006314,-0.00046219,0.00022420,0.00013990,
 0.69724295,-0.00241756,0.00072261,0.00181310,0.03806671,-0.10817766,-0
 .02107589,-0.01835635,0.00841677,0.00553094,0.02884709,-0.01073389,-0.
 01064781,-0.00138335,0.00203355,0.00081006,0.00121590,-0.00061485,0.00
 014474,-0.00075411,0.00050847,-0.00174062,-0.00036862,0.00040701,0.000
 70215,0.00087945,-0.00061043,-0.00005308,0.00006102,0.00036656,-0.0001
 2644,0.17813417,0.68275537,-0.01857545,0.00788323,0.01072406,0.0431428
 1,-0.02167198,-0.09215052,0.02114128,-0.00934178,-0.00502318,0.0104912
 5,-0.00330865,-0.00341853,-0.00014526,0.00061611,0.00102177,-0.0002506
 1,0.00043782,0.00078861,-0.00406759,-0.00028158,-0.00425864,-0.0003536
 7,0.00042307,0.00148181,-0.00013691,-0.00016717,0.00000678,-0.00075009
 ,0.00012302,-0.00025095,-0.09578765,0.09955468,0.20122696,0.00087418,0
 .00077341,0.00051999,-0.00091286,0.02729712,0.00824682,0.00084884,-0.0
 0069615,-0.00006406,-0.00468394,0.00135967,0.00159046,-0.00089692,0.00
 033129,-0.00041536,-0.00003919,-0.00003365,0.00008442,0.00023058,-0.00
 034154,0.00004288,-0.00006220,-0.00000412,-0.00005705,0.00015850,-0.00
 063043,-0.00004409,0.00006476,0.00001457,-0.00004252,-0.05421753,0.010
 77039,0.00697734,0.05793143,0.00020694,-0.00023421,-0.00025728,-0.0010
 2610,-0.00713240,-0.00251531,0.00052889,0.00043639,-0.00011759,0.00109
 721,0.00084617,-0.00065594,0.00011083,-0.00062956,-0.00009596,0.000021
 65,-0.00000903,-0.00004207,0.00008453,0.00007362,0.00012821,0.00003194
 ,-0.00000657,-0.00002363,-0.00059600,0.00040277,0.00000253,-0.00002510
 ,0.00002850,0.00006747,0.00779692,-0.30914499,-0.07503491,-0.00767074,
 0.32910133,0.00039846,-0.00011596,0.00014459,0.00097889,-0.01052798,-0
 .00142111,-0.00083372,0.00010409,0.00043360,0.00226041,-0.00086534,0.0
 0077977,-0.00038876,-0.00010874,0.00020858,-0.00000121,0.00012814,-0.0
 0010677,0.00013432,-0.00006360,0.00009665,0.00001471,0.00003269,-0.000
 03114,-0.00017321,0.00007467,-0.00026916,-0.00001346,-0.00002101,-0.00
 003806,0.00599364,-0.07557681,-0.06211748,-0.01088764,0.08483287,0.052
 33979,-0.00040095,-0.00008501,0.00277895,-0.03292999,-0.01619194,0.005
 68175,-0.00221522,0.00129291,0.00026709,0.00170179,-0.00150021,-0.0011
 5417,-0.00016882,0.00031060,0.00013844,-0.00060366,0.00015865,-0.00002
 112,-0.00003232,0.00007739,-0.00048547,-0.00006692,0.00002082,0.000034
 05,0.00024893,-0.00023828,-0.00007128,0.00034115,-0.00003363,-0.000167
 51,-0.40857087,-0.22021125,0.03572040,0.00295771,0.00201678,0.00144338
 ,0.76332019,0.00493013,-0.00102685,0.00090165,0.00573411,0.01006240,-0
 .00192561,0.00320510,-0.00021197,-0.00116675,0.00149245,0.00142634,0.0
 0029467,0.00001146,-0.00100813,-0.00040949,0.00003934,0.00049726,-0.00
 045805,0.00038734,0.00022785,0.00120980,0.00024288,-0.00023154,-0.0005
 0976,-0.00044581,0.00052759,-0.00006700,0.00008309,-0.00033351,-0.0000
 0864,-0.22098910,-0.25945715,0.00119529,-0.02838249,-0.01509547,0.0022
 0288,0.13695714,0.67516199,0.00041913,-0.00002472,-0.00184421,0.014153
 33,0.00527872,0.00340051,0.00205612,-0.00016047,-0.00062822,-0.0004942
 6,0.00112652,0.00001833,0.00011913,-0.00036709,-0.00014540,-0.00021143
 ,0.00016129,0.00010419,0.00010686,0.00003844,0.00018386,-0.00000008,-0
 .00003624,0.00004862,-0.00022651,0.00024066,0.00007343,-0.00038182,-0.
 00012648,0.00005121,0.03478659,0.00094238,-0.05714668,-0.00685744,-0.0
 0612218,0.00596774,-0.13691736,0.11701852,0.18215972,-0.00040039,-0.00
 006409,0.00007236,0.00150985,-0.00101874,-0.00309054,0.00038240,0.0001
 9449,0.00001363,-0.00023746,0.00055709,0.00037246,0.00008288,-0.000079
 73,0.00002968,-0.00005445,-0.00010895,0.00007203,-0.00009007,-0.000004
 33,-0.00009469,0.00000739,0.00002196,0.00003818,-0.00009791,0.00009537
 ,-0.00003325,0.00007109,0.00007116,0.00000952,0.00278850,-0.02683578,-
 0.00651327,-0.00280231,-0.00318912,0.00315028,-0.05563663,0.00656910,0
 .00684532,0.05179580,0.00034635,0.00007117,-0.00002217,0.00214916,0.00
 053116,0.00171768,-0.00016708,0.00014968,0.00005374,-0.00106242,0.0005
 8833,0.00039342,0.00011935,-0.00015348,0.00000134,-0.00007509,-0.00008
 688,0.00001627,-0.00001687,0.00004653,0.00007081,0.00002263,-0.0000116
 9,-0.00003163,-0.00009219,0.00012994,0.00002448,0.00009404,0.00007020,
 0.00002562,0.00268431,-0.01522590,-0.00663605,-0.00349455,0.00062754,-
 0.00220470,0.00170608,-0.31460880,-0.07649733,0.00027393,0.33432953,-0
 .00139566,-0.00001390,0.00045884,-0.00223451,0.00345311,-0.00681264,0.
 00111471,0.00009912,-0.00000977,-0.00011023,-0.00022131,0.00010906,0.0
 0000833,0.00008930,0.00001718,-0.00008417,-0.00019802,0.00028421,-0.00
 016539,-0.00007471,-0.00038981,-0.00005783,0.00005167,0.00012866,0.000
 03933,-0.00009581,-0.00004776,0.00020788,0.00011415,-0.00003169,0.0027
 8015,0.00072792,0.00569090,0.00296592,-0.00220365,0.01057314,0.0049582
 8,-0.07781264,-0.06048272,-0.00739650,0.08501305,0.04978081,0.00035836
 ,-0.00009293,0.00043054,-0.00073566,-0.00415047,0.00277570,-0.00133638
 ,0.00034899,0.00018348,0.00023775,-0.00003834,-0.00017616,-0.00002570,
 0.00002851,-0.00000786,-0.00000353,-0.00000211,-0.00007347,-0.00001582
 ,0.00004524,0.00002401,0.00001116,-0.00000864,-0.00005575,0.00003256,-
 0.00001478,-0.00001425,0.00003768,0.00000360,-0.00002941,-0.01818806,0
 .01235229,0.00910742,0.00054896,0.00061136,-0.00207609,-0.26794439,0.0
 9016526,0.08660241,0.00268130,-0.00248764,-0.00063029,0.28434179,-0.00
 112689,0.00036154,0.00042781,-0.00272984,-0.00079525,-0.00331392,0.000
 20276,0.00016624,0.00021869,-0.00027576,0.00024173,0.00018757,0.000087
 10,0.00011867,0.00013134,-0.00005915,-0.00014408,0.00015818,-0.0001822
 2,-0.00003869,-0.00039385,-0.00005850,0.00005507,0.00014407,0.00003262
 ,-0.00005544,-0.00001407,0.00005908,0.00008586,-0.00001152,-0.01913369
 ,0.00875454,0.00620890,0.00070723,0.00073590,0.00210879,0.09571996,-0.
 09593000,-0.04147201,0.02351762,-0.00645731,-0.00892828,-0.09676034,0.
 09290122,0.00262085,-0.00039546,-0.00051446,0.00197652,-0.00367331,0.0
 1182670,-0.00217927,0.00062717,0.00034529,-0.00015697,0.00020558,0.000
 05375,-0.00001492,-0.00017773,-0.00009857,0.00008134,0.00010414,-0.000
 39350,0.00038745,0.00009956,0.00072897,0.00008560,-0.00007602,-0.00028
 281,-0.00002541,0.00010301,0.00001463,-0.00003632,-0.00000793,0.000046
 84,0.00106172,-0.00100532,0.00342508,-0.00205967,0.00203743,-0.0065601
 5,0.08779457,-0.04046487,-0.07176038,0.00652479,-0.00192454,0.00073157
 ,-0.09606029,0.04454831,0.06243702\\0.00017311,0.00000604,0.00018236,-
 0.00013441,-0.00000034,-0.00013219,0.00000016,0.00000329,0.00000608,0.
 00001704,-0.00000354,0.00000567,-0.00000222,-0.00004399,-0.00002022,-0
 .00001881,0.00002654,-0.00004237,-0.00003361,0.00001202,0.00000800,0.0
 0001217,-0.00000585,-0.00001583,0.00000077,0.00002063,0.00000430,0.000
 00206,-0.00001322,0.00001347,-0.00003241,-0.00003837,-0.00001334,0.000
 00089,0.00000215,-0.00000021,0.00002674,0.00004481,-0.00000102,-0.0000
 0562,0.00000093,0.00000178,-0.00000587,-0.00001109,0.00000352\\\@
 Job cpu time:       0 days  9 hours 23 minutes 21.6 seconds.
 Elapsed time:       0 days  1 hours 33 minutes 55.2 seconds.
 File lengths (MBytes):  RWF=  58695 Int=      0 D2E=      0 Chk=     86 Scr=      1
 Normal termination of Gaussian 16 at Fri Jun 17 19:57:20 2022.
