 Entering Gaussian System, Link 0=/home/artemiy/opt/gaussian/g16/g16
 Input=1,1,1-Tricyanobutene-3_G3MP2.gjf
 Output=1,1,1-Tricyanobutene-3_G3MP2.log
 Initial command:
 /home/artemiy/opt/gaussian/g16/l1.exe "/home/artemiy/opt/gaussian/scr/Gau-1757.inp" -scrdir="/home/artemiy/opt/gaussian/scr/"
 Entering Link 1 = /home/artemiy/opt/gaussian/g16/l1.exe PID=      1760.
  
 Copyright (c) 1988,1990,1992,1993,1995,1998,2003,2009,2016,
            Gaussian, Inc.  All Rights Reserved.
  
 This is part of the Gaussian(R) 16 program.  It is based on
 the Gaussian(R) 09 system (copyright 2009, Gaussian, Inc.),
 the Gaussian(R) 03 system (copyright 2003, Gaussian, Inc.),
 the Gaussian(R) 98 system (copyright 1998, Gaussian, Inc.),
 the Gaussian(R) 94 system (copyright 1995, Gaussian, Inc.),
 the Gaussian 92(TM) system (copyright 1992, Gaussian, Inc.),
 the Gaussian 90(TM) system (copyright 1990, Gaussian, Inc.),
 the Gaussian 88(TM) system (copyright 1988, Gaussian, Inc.),
 the Gaussian 86(TM) system (copyright 1986, Carnegie Mellon
 University), and the Gaussian 82(TM) system (copyright 1983,
 Carnegie Mellon University). Gaussian is a federally registered
 trademark of Gaussian, Inc.
  
 This software contains proprietary and confidential information,
 including trade secrets, belonging to Gaussian, Inc.
  
 This software is provided under written license and may be
 used, copied, transmitted, or stored only in accord with that
 written license.
  
 The following legend is applicable only to US Government
 contracts under FAR:
  
                    RESTRICTED RIGHTS LEGEND
  
 Use, reproduction and disclosure by the US Government is
 subject to restrictions as set forth in subparagraphs (a)
 and (c) of the Commercial Computer Software - Restricted
 Rights clause in FAR 52.227-19.
  
 Gaussian, Inc.
 340 Quinnipiac St., Bldg. 40, Wallingford CT 06492
  
  
 ---------------------------------------------------------------
 Warning -- This program may not be used in any manner that
 competes with the business of Gaussian, Inc. or will provide
 assistance to any competitor of Gaussian, Inc.  The licensee
 of this program is prohibited from giving any competitor of
 Gaussian, Inc. access to this program.  By using this program,
 the user acknowledges that Gaussian, Inc. is engaged in the
 business of creating and licensing software in the field of
 computational chemistry and represents and warrants to the
 licensee that it is not a competitor of Gaussian, Inc. and that
 it will not use this program in any manner prohibited above.
 ---------------------------------------------------------------
  

 Cite this work as:
 Gaussian 16, Revision A.03,
 M. J. Frisch, G. W. Trucks, H. B. Schlegel, G. E. Scuseria, 
 M. A. Robb, J. R. Cheeseman, G. Scalmani, V. Barone, 
 G. A. Petersson, H. Nakatsuji, X. Li, M. Caricato, A. V. Marenich, 
 J. Bloino, B. G. Janesko, R. Gomperts, B. Mennucci, H. P. Hratchian, 
 J. V. Ortiz, A. F. Izmaylov, J. L. Sonnenberg, D. Williams-Young, 
 F. Ding, F. Lipparini, F. Egidi, J. Goings, B. Peng, A. Petrone, 
 T. Henderson, D. Ranasinghe, V. G. Zakrzewski, J. Gao, N. Rega, 
 G. Zheng, W. Liang, M. Hada, M. Ehara, K. Toyota, R. Fukuda, 
 J. Hasegawa, M. Ishida, T. Nakajima, Y. Honda, O. Kitao, H. Nakai, 
 T. Vreven, K. Throssell, J. A. Montgomery, Jr., J. E. Peralta, 
 F. Ogliaro, M. J. Bearpark, J. J. Heyd, E. N. Brothers, K. N. Kudin, 
 V. N. Staroverov, T. A. Keith, R. Kobayashi, J. Normand, 
 K. Raghavachari, A. P. Rendell, J. C. Burant, S. S. Iyengar, 
 J. Tomasi, M. Cossi, J. M. Millam, M. Klene, C. Adamo, R. Cammi, 
 J. W. Ochterski, R. L. Martin, K. Morokuma, O. Farkas, 
 J. B. Foresman, and D. J. Fox, Gaussian, Inc., Wallingford CT, 2016.
 
 ******************************************
 Gaussian 16:  ES64L-G16RevA.03 25-Dec-2016
                17-Jun-2022 
 ******************************************
 %mem=7GB
 %nprocshared=4
 Will use up to    4 processors via shared memory.
 ----------------
 # g3mp2 geom=gic
 ----------------
 1/18=20,19=15,38=1,145=2/1,3;
 2/9=110,12=2,17=6,18=5,40=1/2;
 3/5=33,7=1,11=9,25=1,30=1,71=1/1,2,3;
 4//1;
 5/5=2,38=5/2;
 6/7=2,8=2,9=2,10=2,28=1/1;
 7//1,2,3,16;
 1/18=20,19=15,145=2/3(2);
 2/9=110/2;
 99//99;
 2/9=110/2;
 3/5=33,7=1,11=9,25=1,30=1,71=1/1,2,3;
 4/5=5,16=3,69=1/1;
 5/5=2,38=5/2;
 7//1,2,3,16;
 1/18=20,19=15,145=2/3(-5);
 2/9=110/2;
 6/7=2,8=2,9=2,10=2,19=2,28=1/1;
 99/9=1/99;
 -------------------
 CAS 5247-14-3
 -------------------
 Symbolic Z-matrix:
 Charge =  0 Multiplicity = 1
 C                     0.43429   0.01512   0.07064 
 C                    -0.65955  -0.01646   1.17985 
 H                    -0.31629  -0.68672   1.97354 
 H                    -0.76502   0.99123   1.58918 
 C                     0.66133  -1.32082  -0.46319 
 C                     0.01779   0.89427  -1.01406 
 C                     1.68768   0.51353   0.62038 
 N                     2.65591   0.90626   1.07704 
 N                     0.83348  -2.37471  -0.86303 
 N                    -0.32038   1.59135  -1.8503 
 C                    -1.96265  -0.49515   0.61565 
 H                    -1.97418  -1.52495   0.28249 
 C                    -3.03183   0.26857   0.50017 
 H                    -3.03426   1.29807   0.81954 
 H                    -3.95159  -0.10579   0.08697 
 
 Initializing the GIC definitions file.

 GradGradGradGradGradGradGradGradGradGradGradGradGradGradGradGradGradGrad
 Berny optimization.
 Initialization pass.
                           ----------------------------
                           !    Initial Parameters    !
                           ! (Angstroms and Degrees)  !
 --------------------------                            --------------------------
 ! Name  Definition              Value          Derivative Info.                !
 --------------------------------------------------------------------------------
 ! R1    R(1,2)                  1.5581         estimate D2E/DX2                !
 ! R2    R(1,5)                  1.4565         estimate D2E/DX2                !
 ! R3    R(1,6)                  1.457          estimate D2E/DX2                !
 ! R4    R(1,7)                  1.4566         estimate D2E/DX2                !
 ! R5    R(2,3)                  1.0941         estimate D2E/DX2                !
 ! R6    R(2,4)                  1.0928         estimate D2E/DX2                !
 ! R7    R(2,11)                 1.4985         estimate D2E/DX2                !
 ! R8    R(5,9)                  1.1403         estimate D2E/DX2                !
 ! R9    R(6,10)                 1.14           estimate D2E/DX2                !
 ! R10   R(7,8)                  1.1403         estimate D2E/DX2                !
 ! R11   R(11,12)                1.0824         estimate D2E/DX2                !
 ! R12   R(11,13)                1.319          estimate D2E/DX2                !
 ! R13   R(13,14)                1.0779         estimate D2E/DX2                !
 ! R14   R(13,15)                1.0756         estimate D2E/DX2                !
 ! A1    A(2,1,5)              110.5952         estimate D2E/DX2                !
 ! A2    A(2,1,6)              109.9699         estimate D2E/DX2                !
 ! A3    A(2,1,7)              110.02           estimate D2E/DX2                !
 ! A4    A(5,1,6)              108.9745         estimate D2E/DX2                !
 ! A5    A(5,1,7)              108.5451         estimate D2E/DX2                !
 ! A6    A(6,1,7)              108.6925         estimate D2E/DX2                !
 ! A7    A(1,2,3)              107.9744         estimate D2E/DX2                !
 ! A8    A(1,2,4)              108.4041         estimate D2E/DX2                !
 ! A9    A(1,2,11)             110.4205         estimate D2E/DX2                !
 ! A10   A(3,2,4)              108.8733         estimate D2E/DX2                !
 ! A11   A(3,2,11)             110.5037         estimate D2E/DX2                !
 ! A12   A(4,2,11)             110.5906         estimate D2E/DX2                !
 ! A13   L(1,5,9,12,-1)        179.4449         estimate D2E/DX2                !
 ! A14   L(1,5,9,12,-2)        180.8848         estimate D2E/DX2                !
 ! A15   L(1,6,10,15,-1)       179.3665         estimate D2E/DX2                !
 ! A16   L(1,6,10,15,-2)       179.2317         estimate D2E/DX2                !
 ! A17   L(1,7,8,4,-1)         178.6508         estimate D2E/DX2                !
 ! A18   L(1,7,8,4,-2)         179.2524         estimate D2E/DX2                !
 ! A19   A(2,11,12)            115.4089         estimate D2E/DX2                !
 ! A20   A(2,11,13)            123.5658         estimate D2E/DX2                !
 ! A21   A(12,11,13)           121.0165         estimate D2E/DX2                !
 ! A22   A(11,13,14)           121.9312         estimate D2E/DX2                !
 ! A23   A(11,13,15)           121.6873         estimate D2E/DX2                !
 ! A24   A(14,13,15)           116.3804         estimate D2E/DX2                !
 ! D1    D(5,1,2,3)             59.3819         estimate D2E/DX2                !
 ! D2    D(5,1,2,4)            177.1797         estimate D2E/DX2                !
 ! D3    D(5,1,2,11)           -61.5299         estimate D2E/DX2                !
 ! D4    D(6,1,2,3)            179.7875         estimate D2E/DX2                !
 ! D5    D(6,1,2,4)            -62.4148         estimate D2E/DX2                !
 ! D6    D(6,1,2,11)            58.8757         estimate D2E/DX2                !
 ! D7    D(7,1,2,3)            -60.5215         estimate D2E/DX2                !
 ! D8    D(7,1,2,4)             57.2763         estimate D2E/DX2                !
 ! D9    D(7,1,2,11)           178.5668         estimate D2E/DX2                !
 ! D10   D(1,2,11,12)           66.167          estimate D2E/DX2                !
 ! D11   D(1,2,11,13)         -112.7582         estimate D2E/DX2                !
 ! D12   D(3,2,11,12)          -53.225          estimate D2E/DX2                !
 ! D13   D(3,2,11,13)          127.8498         estimate D2E/DX2                !
 ! D14   D(4,2,11,12)         -173.8498         estimate D2E/DX2                !
 ! D15   D(4,2,11,13)            7.2251         estimate D2E/DX2                !
 ! D16   D(2,11,13,14)          -0.6221         estimate D2E/DX2                !
 ! D17   D(2,11,13,15)         179.7707         estimate D2E/DX2                !
 ! D18   D(12,11,13,14)       -179.4893         estimate D2E/DX2                !
 ! D19   D(12,11,13,15)          0.9036         estimate D2E/DX2                !
 --------------------------------------------------------------------------------
 Trust Radius=3.00D-01 FncErr=1.00D-07 GrdErr=1.00D-07 EigMax=2.50D+02 EigMin=1.00D-04
 Number of steps in this run=     67 maximum allowed number of steps=    100.
 GradGradGradGradGradGradGradGradGradGradGradGradGradGradGradGradGradGrad

                          Input orientation:                          
 ---------------------------------------------------------------------
 Center     Atomic      Atomic             Coordinates (Angstroms)
 Number     Number       Type             X           Y           Z
 ---------------------------------------------------------------------
      1          6           0        0.434286    0.015125    0.070641
      2          6           0       -0.659550   -0.016460    1.179854
      3          1           0       -0.316288   -0.686716    1.973544
      4          1           0       -0.765015    0.991233    1.589180
      5          6           0        0.661328   -1.320823   -0.463193
      6          6           0        0.017794    0.894266   -1.014059
      7          6           0        1.687683    0.513525    0.620376
      8          7           0        2.655907    0.906255    1.077044
      9          7           0        0.833484   -2.374712   -0.863034
     10          7           0       -0.320384    1.591354   -1.850301
     11          6           0       -1.962646   -0.495154    0.615645
     12          1           0       -1.974183   -1.524954    0.282488
     13          6           0       -3.031834    0.268567    0.500166
     14          1           0       -3.034263    1.298075    0.819542
     15          1           0       -3.951594   -0.105794    0.086968
 ---------------------------------------------------------------------
                    Distance matrix (angstroms):
                    1          2          3          4          5
     1  C    0.000000
     2  C    1.558149   0.000000
     3  H    2.162633   1.094082   0.000000
     4  H    2.167273   1.092756   1.778933   0.000000
     5  C    1.456463   2.479050   2.701021   3.404746   0.000000
     6  C    1.457028   2.470116   3.396600   2.720119   2.371541
     7  C    1.456577   2.470507   2.699545   2.680022   2.364817
     8  N    2.596644   3.442998   3.489300   3.460089   3.363117
     9  N    2.596619   3.458887   3.495352   4.460733   1.140260
    10  N    2.596930   3.447020   4.451002   3.519642   3.371736
    11  C    2.510517   1.498512   2.142681   2.142764   2.954803
    12  H    2.866608   2.192961   2.512156   3.082325   2.746567
    13  C    3.501815   2.484139   3.233821   2.616613   4.134449
    14  H    3.773280   2.738081   3.557879   2.415777   4.707592
    15  H    4.387577   3.469861   4.136676   3.689769   4.801877
                    6          7          8          9         10
     6  C    0.000000
     7  C    2.367461   0.000000
     8  N    3.366378   1.140281   0.000000
     9  N    3.372592   3.357391   4.224912   0.000000
    10  N    1.139999   3.361294   4.230488   4.246856   0.000000
    11  C    2.916945   3.787131   4.848492   3.679344   3.623732
    12  H    3.391405   4.204620   5.289597   3.149175   4.122525
    13  C    3.461879   4.727398   5.752376   4.877081   3.824451
    14  H    3.583323   4.790820   5.709454   5.592843   3.818274
    15  H    4.238917   5.698204   6.757483   5.380285   4.451855
                   11         12         13         14         15
    11  C    0.000000
    12  H    1.082411   0.000000
    13  C    1.319003   2.093496   0.000000
    14  H    2.098954   3.062954   1.077911   0.000000
    15  H    2.094520   2.441802   1.075564   1.830029   0.000000
 Stoichiometry    C7H5N3
 Framework group  C1[X(C7H5N3)]
 Deg. of freedom    39
 Full point group                 C1      NOp   1
 Largest Abelian subgroup         C1      NOp   1
 Largest concise Abelian subgroup C1      NOp   1
                         Standard orientation:                         
 ---------------------------------------------------------------------
 Center     Atomic      Atomic             Coordinates (Angstroms)
 Number     Number       Type             X           Y           Z
 ---------------------------------------------------------------------
      1          6           0        0.506539   -0.018958   -0.045918
      2          6           0       -0.609330   -0.002615   -1.133300
      3          1           0       -0.278588    0.650088   -1.946690
      4          1           0       -0.728487   -1.017448   -1.520639
      5          6           0        0.751535    1.325780    0.457015
      6          6           0        0.107345   -0.874421    1.063927
      7          6           0        1.745851   -0.535193   -0.610914
      8          7           0        2.702506   -0.942322   -1.079209
      9          7           0        0.937425    2.386229    0.832628
     10          7           0       -0.217598   -1.553153    1.920276
     11          6           0       -1.898144    0.494488   -0.552449
     12          1           0       -1.897385    1.530619   -0.239327
     13          6           0       -2.968878   -0.260646   -0.400566
     14          1           0       -2.983319   -1.296136   -0.699637
     15          1           0       -3.878058    0.126992    0.023659
 ---------------------------------------------------------------------
 Rotational constants (GHZ):           1.7151527           1.0782200           0.9871159
 Standard basis: GTBas1 (6D, 7F)
 There are   160 symmetry adapted cartesian basis functions of A   symmetry.
 There are   160 symmetry adapted basis functions of A   symmetry.
   160 basis functions,   300 primitive gaussians,   160 cartesian basis functions
    34 alpha electrons       34 beta electrons
       nuclear repulsion energy       433.2859470530 Hartrees.
 NAtoms=   15 NActive=   15 NUniq=   15 SFac= 1.00D+00 NAtFMM=   60 NAOKFM=F Big=F
 Integral buffers will be    131072 words long.
 Raffenetti 1 integral format.
 Two-electron integral symmetry is turned on.
 One-electron integrals computed using PRISM.
 NBasis=   160 RedAO= T EigKep=  6.12D-04  NBF=   160
 NBsUse=   160 1.00D-06 EigRej= -1.00D+00 NBFU=   160
 ExpMin= 1.61D-01 ExpMax= 4.17D+03 ExpMxC= 6.27D+02 IAcc=3 IRadAn=         5 AccDes= 0.00D+00
 Harris functional with IExCor=  205 and IRadAn=       5 diagonalized for initial guess.
 HarFok:  IExCor=  205 AccDes= 0.00D+00 IRadAn=         5 IDoV= 1 UseB2=F ITyADJ=14
 ICtDFT=  3500011 ScaDFX=  1.000000  1.000000  1.000000  1.000000
 FoFCou: FMM=F IPFlag=           0 FMFlag=      100000 FMFlg1=           0
         NFxFlg=           0 DoJE=T BraDBF=F KetDBF=T FulRan=T
         wScrn=  0.000000 ICntrl=       500 IOpCl=  0 I1Cent=   200000004 NGrid=           0
         NMat0=    1 NMatS0=      1 NMatT0=    0 NMatD0=    1 NMtDS0=    0 NMtDT0=    0
 Petite list used in FoFCou.
 Keep R1 ints in memory in canonical form, NReq=85041264.
 Requested convergence on RMS density matrix=1.00D-08 within 128 cycles.
 Requested convergence on MAX density matrix=1.00D-06.
 Requested convergence on             energy=1.00D-06.
 No special actions if energy rises.
 SCF Done:  E(RHF) =  -431.259829343     A.U. after   15 cycles
            NFock= 15  Conv=0.33D-08     -V/T= 2.0014

 **********************************************************************

            Population analysis using the SCF density.

 **********************************************************************

 Orbital symmetries:
       Occupied  (A) (A) (A) (A) (A) (A) (A) (A) (A) (A) (A) (A)
                 (A) (A) (A) (A) (A) (A) (A) (A) (A) (A) (A) (A)
                 (A) (A) (A) (A) (A) (A) (A) (A) (A) (A)
       Virtual   (A) (A) (A) (A) (A) (A) (A) (A) (A) (A) (A) (A)
                 (A) (A) (A) (A) (A) (A) (A) (A) (A) (A) (A) (A)
                 (A) (A) (A) (A) (A) (A) (A) (A) (A) (A) (A) (A)
                 (A) (A) (A) (A) (A) (A) (A) (A) (A) (A) (A) (A)
                 (A) (A) (A) (A) (A) (A) (A) (A) (A) (A) (A) (A)
                 (A) (A) (A) (A) (A) (A) (A) (A) (A) (A) (A) (A)
                 (A) (A) (A) (A) (A) (A) (A) (A) (A) (A) (A) (A)
                 (A) (A) (A) (A) (A) (A) (A) (A) (A) (A) (A) (A)
                 (A) (A) (A) (A) (A) (A) (A) (A) (A) (A) (A) (A)
                 (A) (A) (A) (A) (A) (A) (A) (A) (A) (A) (A) (A)
                 (A) (A) (A) (A) (A) (A)
 The electronic state is 1-A.
 Alpha  occ. eigenvalues --  -15.62769 -15.62638 -15.62328 -11.40694 -11.32556
 Alpha  occ. eigenvalues --  -11.32411 -11.32157 -11.30921 -11.27056 -11.26261
 Alpha  occ. eigenvalues --   -1.29997  -1.26866  -1.26602  -1.18949  -1.09793
 Alpha  occ. eigenvalues --   -0.97604  -0.84829  -0.83814  -0.79320  -0.70056
 Alpha  occ. eigenvalues --   -0.66882  -0.63477  -0.60594  -0.60100  -0.59826
 Alpha  occ. eigenvalues --   -0.58250  -0.54697  -0.53470  -0.52851  -0.50797
 Alpha  occ. eigenvalues --   -0.50703  -0.50084  -0.49782  -0.40600
 Alpha virt. eigenvalues --    0.11832   0.12785   0.13369   0.14616   0.19713
 Alpha virt. eigenvalues --    0.20438   0.21968   0.23920   0.25294   0.28196
 Alpha virt. eigenvalues --    0.28471   0.30936   0.31724   0.35060   0.36188
 Alpha virt. eigenvalues --    0.38455   0.44083   0.51092   0.53259   0.54555
 Alpha virt. eigenvalues --    0.57856   0.64372   0.68535   0.69858   0.72538
 Alpha virt. eigenvalues --    0.73355   0.74999   0.77948   0.80196   0.81397
 Alpha virt. eigenvalues --    0.82650   0.83589   0.84339   0.86194   0.88438
 Alpha virt. eigenvalues --    0.89187   0.89929   0.93878   0.94680   0.95927
 Alpha virt. eigenvalues --    1.01719   1.04989   1.05395   1.06773   1.06933
 Alpha virt. eigenvalues --    1.07925   1.09281   1.10504   1.13552   1.13778
 Alpha virt. eigenvalues --    1.15925   1.18165   1.20443   1.20821   1.22211
 Alpha virt. eigenvalues --    1.29899   1.33261   1.38720   1.41737   1.43042
 Alpha virt. eigenvalues --    1.47347   1.52643   1.58936   1.64594   1.67650
 Alpha virt. eigenvalues --    1.73222   1.74839   1.75365   1.75763   1.76466
 Alpha virt. eigenvalues --    1.76750   1.81132   1.86591   1.89254   1.90778
 Alpha virt. eigenvalues --    1.92164   1.94843   1.96265   2.07947   2.11114
 Alpha virt. eigenvalues --    2.16203   2.17622   2.18663   2.23175   2.24418
 Alpha virt. eigenvalues --    2.26057   2.26476   2.27350   2.29486   2.30934
 Alpha virt. eigenvalues --    2.32314   2.34913   2.39482   2.43542   2.46293
 Alpha virt. eigenvalues --    2.50450   2.52992   2.54545   2.67106   2.72902
 Alpha virt. eigenvalues --    2.79365   2.84779   2.91400   2.96643   2.97911
 Alpha virt. eigenvalues --    3.02234   3.11423   3.15396   3.17384   3.19584
 Alpha virt. eigenvalues --    3.23485   3.33013   3.34128   3.52092   3.70151
 Alpha virt. eigenvalues --    3.71701   4.47273   4.47999   4.50660   4.54736
 Alpha virt. eigenvalues --    4.63827   4.70439   4.81939   4.89892   4.90515
 Alpha virt. eigenvalues --    5.50772
          Condensed to atoms (all electrons):
               1          2          3          4          5          6
     1  C    5.136560   0.342993  -0.045474  -0.034041   0.308173   0.303479
     2  C    0.342993   5.100617   0.403241   0.398707  -0.058567  -0.057217
     3  H   -0.045474   0.403241   0.463296  -0.015923  -0.004158   0.005775
     4  H   -0.034041   0.398707  -0.015923   0.453870   0.005622  -0.003634
     5  C    0.308173  -0.058567  -0.004158   0.005622   4.620592  -0.079952
     6  C    0.303479  -0.057217   0.005775  -0.003634  -0.079952   4.617454
     7  C    0.327894  -0.057060  -0.003766  -0.004808  -0.076238  -0.075915
     8  N   -0.052854  -0.002152   0.000050   0.000096  -0.003061  -0.003191
     9  N   -0.049534  -0.002413   0.000001   0.000007   0.927772  -0.003335
    10  N   -0.048923  -0.002629  -0.000016   0.000012  -0.003078   0.927980
    11  C   -0.059203   0.355880  -0.036131  -0.037718  -0.008556  -0.007797
    12  H   -0.002244  -0.040983  -0.000756   0.002408   0.004958   0.000065
    13  C   -0.003742  -0.048032   0.000308   0.001292   0.000091   0.004363
    14  H    0.000137  -0.003929   0.000078   0.002590  -0.000000   0.000114
    15  H   -0.000072   0.002970  -0.000085   0.000078   0.000002  -0.000027
               7          8          9         10         11         12
     1  C    0.327894  -0.052854  -0.049534  -0.048923  -0.059203  -0.002244
     2  C   -0.057060  -0.002152  -0.002413  -0.002629   0.355880  -0.040983
     3  H   -0.003766   0.000050   0.000001  -0.000016  -0.036131  -0.000756
     4  H   -0.004808   0.000096   0.000007   0.000012  -0.037718   0.002408
     5  C   -0.076238  -0.003061   0.927772  -0.003078  -0.008556   0.004958
     6  C   -0.075915  -0.003191  -0.003335   0.927980  -0.007797   0.000065
     7  C    4.594601   0.937346  -0.003463  -0.003391   0.005816  -0.000210
     8  N    0.937346   6.523615  -0.000138  -0.000132  -0.000033  -0.000001
     9  N   -0.003463  -0.000138   6.534628  -0.000104  -0.001530   0.000781
    10  N   -0.003391  -0.000132  -0.000104   6.533959  -0.003309  -0.000029
    11  C    0.005816  -0.000033  -0.001530  -0.003309   5.006044   0.390451
    12  H   -0.000210  -0.000001   0.000781  -0.000029   0.390451   0.446482
    13  C   -0.000172  -0.000001  -0.000005  -0.000988   0.648357  -0.025708
    14  H   -0.000018  -0.000000  -0.000000   0.000027  -0.046549   0.002663
    15  H    0.000003   0.000000   0.000000   0.000004  -0.035870  -0.002564
              13         14         15
     1  C   -0.003742   0.000137  -0.000072
     2  C   -0.048032  -0.003929   0.002970
     3  H    0.000308   0.000078  -0.000085
     4  H    0.001292   0.002590   0.000078
     5  C    0.000091  -0.000000   0.000002
     6  C    0.004363   0.000114  -0.000027
     7  C   -0.000172  -0.000018   0.000003
     8  N   -0.000001  -0.000000   0.000000
     9  N   -0.000005  -0.000000   0.000000
    10  N   -0.000988   0.000027   0.000004
    11  C    0.648357  -0.046549  -0.035870
    12  H   -0.025708   0.002663  -0.002564
    13  C    4.990152   0.399505   0.395228
    14  H    0.399505   0.474130  -0.023253
    15  H    0.395228  -0.023253   0.458737
 Mulliken charges:
               1
     1  C   -0.123148
     2  C   -0.331426
     3  H    0.233561
     4  H    0.231440
     5  C    0.366399
     6  C    0.371841
     7  C    0.359384
     8  N   -0.399544
     9  N   -0.402667
    10  N   -0.399384
    11  C   -0.169851
    12  H    0.224689
    13  C   -0.360648
    14  H    0.194507
    15  H    0.204850
 Sum of Mulliken charges =  -0.00000
 Mulliken charges with hydrogens summed into heavy atoms:
               1
     1  C   -0.123148
     2  C    0.133574
     5  C    0.366399
     6  C    0.371841
     7  C    0.359384
     8  N   -0.399544
     9  N   -0.402667
    10  N   -0.399384
    11  C    0.054837
    13  C    0.038708
 Electronic spatial extent (au):  <R**2>=           1354.0407
 Charge=             -0.0000 electrons
 Dipole moment (field-independent basis, Debye):
    X=             -3.6181    Y=              0.0324    Z=             -2.7080  Tot=              4.5194
 Quadrupole moment (field-independent basis, Debye-Ang):
   XX=            -61.5847   YY=            -66.9087   ZZ=            -63.3837
   XY=              0.6125   XZ=              3.9368   YZ=              0.6967
 Traceless Quadrupole moment (field-independent basis, Debye-Ang):
   XX=              2.3743   YY=             -2.9497   ZZ=              0.5754
   XY=              0.6125   XZ=              3.9368   YZ=              0.6967
 Octapole moment (field-independent basis, Debye-Ang**2):
  XXX=            -48.6622  YYY=            -15.6327  ZZZ=            -12.7407  XYY=            -14.4032
  XXY=              5.8984  XXZ=             14.1287  XZZ=             -1.4121  YZZ=              8.5201
  YYZ=            -16.1700  XYZ=            -11.4778
 Hexadecapole moment (field-independent basis, Debye-Ang**3):
 XXXX=           -985.3131 YYYY=           -553.6035 ZZZZ=           -406.7449 XXXY=             37.3628
 XXXZ=             24.8765 YYYX=            -19.7023 YYYZ=             -7.0787 ZZZX=              6.0874
 ZZZY=             16.1193 XXYY=           -254.7413 XXZZ=           -252.8942 YYZZ=           -168.7374
 XXYZ=             -9.1113 YYXZ=              1.4499 ZZXY=              2.5951
 N-N= 4.332859470530D+02 E-N=-1.871564314659D+03  KE= 4.306674360536D+02
 Calling FoFJK, ICntrl=      2127 FMM=F ISym2X=0 I1Cent= 0 IOpClX= 0 NMat=1 NMatS=1 NMatT=0.
 ***** Axes restored to original set *****
 -------------------------------------------------------------------
 Center     Atomic                   Forces (Hartrees/Bohr)
 Number     Number              X              Y              Z
 -------------------------------------------------------------------
      1        6          -0.005348334    0.002346602    0.009012333
      2        6          -0.006108294    0.001103206    0.009501901
      3        1           0.000438796    0.005815986   -0.005284458
      4        1           0.003543480   -0.006924666   -0.002917673
      5        6           0.006804569   -0.039735739   -0.014749872
      6        6          -0.012075952    0.026220121   -0.031161643
      7        6           0.036111482    0.014485991    0.017772308
      8        7          -0.019420595   -0.007705854   -0.008672808
      9        7          -0.003946092    0.020771686    0.008265071
     10        7           0.007106425   -0.013483920    0.016708573
     11        6          -0.005124691   -0.003893831   -0.000609891
     12        1          -0.003024739    0.003643173    0.001394622
     13        6          -0.000109111   -0.001191031    0.001087082
     14        1           0.000101372   -0.001243697   -0.000426161
     15        1           0.001051682   -0.000208027    0.000080617
 -------------------------------------------------------------------
 Cartesian Forces:  Max     0.039735739 RMS     0.012877437

 GradGradGradGradGradGradGradGradGradGradGradGradGradGradGradGradGradGrad
 Berny optimization.
 FormGI is forming the generalized inverse of G from B-inverse, IUseBI=4.
 Internal  Forces:  Max     0.022692291 RMS     0.007608031
 Search for a local minimum.
 Step number   1 out of a maximum of   67
 All quantities printed in internal units (Hartrees-Bohrs-Radians)
 Mixed Optimization -- RFO/linear search
 Second derivative matrix not updated -- first step.
 ITU=  0
     Eigenvalues ---    0.00230   0.00786   0.01796   0.03160   0.03160
     Eigenvalues ---    0.04399   0.05127   0.05127   0.05128   0.05128
     Eigenvalues ---    0.05131   0.05131   0.05572   0.08577   0.08692
     Eigenvalues ---    0.08906   0.12558   0.15998   0.16000   0.16000
     Eigenvalues ---    0.21986   0.22000   0.25000   0.25000   0.25000
     Eigenvalues ---    0.26970   0.32534   0.34345   0.34496   0.35705
     Eigenvalues ---    0.36248   0.36536   0.37339   0.37396   0.37411
     Eigenvalues ---    0.62180   1.41618   1.41634   1.41830
 RFO step:  Lambda=-6.94498592D-03 EMin= 2.30000000D-03
 Linear search not attempted -- first point.
 Iteration  1 RMS(Cart)=  0.07905611 RMS(Int)=  0.00134746
 Iteration  2 RMS(Cart)=  0.00213594 RMS(Int)=  0.00030378
 Iteration  3 RMS(Cart)=  0.00000197 RMS(Int)=  0.00030377
 Iteration  4 RMS(Cart)=  0.00000000 RMS(Int)=  0.00030377
 Variable       Old X    -DE/DX   Delta X   Delta X   Delta X     New X
                                 (Linear)    (Quad)   (Total)
    R1        2.94448   0.00855   0.00000   0.03091   0.03091   2.97538
    R2        2.75232   0.02022   0.00000   0.05306   0.05306   2.80537
    R3        2.75338   0.01986   0.00000   0.05223   0.05223   2.80561
    R4        2.75253   0.02012   0.00000   0.05281   0.05281   2.80534
    R5        2.06752  -0.00726   0.00000  -0.02072  -0.02072   2.04680
    R6        2.06501  -0.00782   0.00000  -0.02222  -0.02222   2.04279
    R7        2.83178   0.00653   0.00000   0.01965   0.01965   2.85143
    R8        2.15478  -0.02269   0.00000  -0.01594  -0.01594   2.13884
    R9        2.15429  -0.02261   0.00000  -0.01586  -0.01586   2.13842
   R10        2.15482  -0.02262   0.00000  -0.01589  -0.01589   2.13893
   R11        2.04546  -0.00386   0.00000  -0.01061  -0.01061   2.03485
   R12        2.49255  -0.00244   0.00000  -0.00388  -0.00388   2.48867
   R13        2.03696  -0.00131   0.00000  -0.00356  -0.00356   2.03340
   R14        2.03252  -0.00086   0.00000  -0.00231  -0.00231   2.03021
    A1        1.93025  -0.00215   0.00000  -0.00748  -0.00757   1.92268
    A2        1.91934   0.00221   0.00000   0.01142   0.01143   1.93077
    A3        1.92021  -0.00398   0.00000  -0.01918  -0.01925   1.90097
    A4        1.90196   0.00127   0.00000   0.01207   0.01205   1.91402
    A5        1.89447   0.00217   0.00000   0.00303   0.00286   1.89733
    A6        1.89704   0.00057   0.00000   0.00044   0.00049   1.89753
    A7        1.88451  -0.00520   0.00000  -0.03276  -0.03337   1.85113
    A8        1.89201  -0.00514   0.00000  -0.02770  -0.02872   1.86329
    A9        1.92720   0.01226   0.00000   0.06023   0.06012   1.98733
   A10        1.90020   0.00127   0.00000  -0.01637  -0.01733   1.88286
   A11        1.92865  -0.00203   0.00000   0.00202   0.00256   1.93122
   A12        1.93017  -0.00143   0.00000   0.01204   0.01227   1.94243
   A13        3.13190  -0.00131   0.00000  -0.02245  -0.02245   3.10946
   A14        3.15703   0.00041   0.00000   0.00711   0.00711   3.16414
   A15        3.13054   0.00091   0.00000   0.01565   0.01565   3.14618
   A16        3.12818  -0.00072   0.00000  -0.01237  -0.01237   3.11582
   A17        3.11805  -0.00092   0.00000  -0.01586  -0.01586   3.10219
   A18        3.12854  -0.00024   0.00000  -0.00413  -0.00413   3.12441
   A19        2.01427   0.00255   0.00000   0.01605   0.01591   2.03017
   A20        2.15663   0.00077   0.00000   0.00351   0.00337   2.16000
   A21        2.11214  -0.00331   0.00000  -0.01905  -0.01919   2.09295
   A22        2.12810   0.00031   0.00000   0.00186   0.00185   2.12995
   A23        2.12384  -0.00078   0.00000  -0.00469  -0.00469   2.11915
   A24        2.03122   0.00048   0.00000   0.00286   0.00286   2.03408
    D1        1.03641   0.00133   0.00000   0.05303   0.05254   1.08895
    D2        3.09237  -0.00280   0.00000   0.00068   0.00123   3.09360
    D3       -1.07390  -0.00029   0.00000   0.03493   0.03500  -1.03890
    D4        3.13788   0.00297   0.00000   0.07067   0.07015  -3.07515
    D5       -1.08934  -0.00116   0.00000   0.01832   0.01885  -1.07050
    D6        1.02757   0.00134   0.00000   0.05257   0.05261   1.08019
    D7       -1.05630   0.00256   0.00000   0.06636   0.06576  -0.99054
    D8        0.99966  -0.00157   0.00000   0.01400   0.01445   1.01411
    D9        3.11658   0.00094   0.00000   0.04826   0.04822  -3.11839
   D10        1.15483   0.00017   0.00000   0.00905   0.00903   1.16386
   D11       -1.96800  -0.00058   0.00000  -0.02188  -0.02215  -1.99015
   D12       -0.92895   0.00010   0.00000   0.01003   0.00986  -0.91909
   D13        2.23140  -0.00066   0.00000  -0.02090  -0.02132   2.21008
   D14       -3.03425   0.00077   0.00000   0.02132   0.02188  -3.01237
   D15        0.12610   0.00002   0.00000  -0.00961  -0.00930   0.11680
   D16       -0.01086   0.00048   0.00000   0.01794   0.01776   0.00690
   D17        3.13759   0.00027   0.00000   0.01248   0.01230  -3.13330
   D18       -3.13268  -0.00037   0.00000  -0.01503  -0.01485   3.13565
   D19        0.01577  -0.00058   0.00000  -0.02050  -0.02032  -0.00455
         Item               Value     Threshold  Converged?
 Maximum Force            0.022692     0.000450     NO 
 RMS     Force            0.007608     0.000300     NO 
 Maximum Displacement     0.243758     0.001800     NO 
 RMS     Displacement     0.078854     0.001200     NO 
 Predicted change in Energy=-3.606869D-03
 GradGradGradGradGradGradGradGradGradGradGradGradGradGradGradGradGradGrad

                          Input orientation:                          
 ---------------------------------------------------------------------
 Center     Atomic      Atomic             Coordinates (Angstroms)
 Number     Number       Type             X           Y           Z
 ---------------------------------------------------------------------
      1          6           0        0.455917    0.025774    0.035595
      2          6           0       -0.672215   -0.000811    1.133629
      3          1           0       -0.299405   -0.631847    1.931097
      4          1           0       -0.756213    1.005797    1.518648
      5          6           0        0.680916   -1.340374   -0.500009
      6          6           0        0.085827    0.942122   -1.072364
      7          6           0        1.716743    0.508988    0.652548
      8          7           0        2.654340    0.884796    1.163246
      9          7           0        0.825798   -2.397751   -0.876820
     10          7           0       -0.191393    1.663401   -1.899065
     11          6           0       -2.001507   -0.507936    0.631021
     12          1           0       -2.039087   -1.544915    0.343358
     13          6           0       -3.084199    0.236966    0.545853
     14          1           0       -3.086576    1.275045    0.829090
     15          1           0       -4.014221   -0.165469    0.189037
 ---------------------------------------------------------------------
                    Distance matrix (angstroms):
                    1          2          3          4          5
     1  C    0.000000
     2  C    1.574505   0.000000
     3  H    2.143806   1.083119   0.000000
     4  H    2.151546   1.080997   1.749475   0.000000
     5  C    1.484539   2.508818   2.715385   3.412453   0.000000
     6  C    1.484667   2.515981   3.412706   2.725148   2.427244
     7  C    1.484524   2.489670   2.645949   2.666920   2.412771
     8  N    2.615833   3.442549   3.407993   3.431155   3.407668
     9  N    2.615872   3.468612   3.502699   4.452546   1.131823
    10  N    2.616055   3.492568   4.466539   3.525937   3.426507
    11  C    2.584243   1.508910   2.145391   2.151750   3.027801
    12  H    2.964257   2.208421   2.526084   3.087588   2.855087
    13  C    3.582929   2.493930   3.229368   2.637603   4.214015
    14  H    3.839215   2.747671   3.552320   2.445113   4.775031
    15  H    4.476857   3.476834   4.129424   3.708685   4.888712
                    6          7          8          9         10
     6  C    0.000000
     7  C    2.413051   0.000000
     8  N    3.405657   1.131871   0.000000
     9  N    3.426448   3.403216   4.275575   0.000000
    10  N    1.131604   3.388862   4.252314   4.309596   0.000000
    11  C    3.059600   3.854865   4.888751   3.720032   3.793752
    12  H    3.564391   4.291896   5.348268   3.228580   4.328479
    13  C    3.628352   4.809826   5.807899   4.924816   4.047304
    14  H    3.713557   4.867226   5.763860   5.630829   3.996966
    15  H    4.430382   5.789101   6.820693   5.435524   4.724294
                   11         12         13         14         15
    11  C    0.000000
    12  H    1.076795   0.000000
    13  C    1.316949   2.075660   0.000000
    14  H    2.096575   3.047186   1.076028   0.000000
    15  H    2.088935   2.414092   1.074343   1.829009   0.000000
 Stoichiometry    C7H5N3
 Framework group  C1[X(C7H5N3)]
 Deg. of freedom    39
 Full point group                 C1      NOp   1
 Largest Abelian subgroup         C1      NOp   1
 Largest concise Abelian subgroup C1      NOp   1
                         Standard orientation:                         
 ---------------------------------------------------------------------
 Center     Atomic      Atomic             Coordinates (Angstroms)
 Number     Number       Type             X           Y           Z
 ---------------------------------------------------------------------
      1          6           0        0.515759   -0.013594   -0.024886
      2          6           0       -0.653415    0.019749   -1.078920
      3          1           0       -0.322004    0.677110   -1.873395
      4          1           0       -0.734539   -0.978333   -1.486113
      5          6           0        0.737256    1.342679    0.536647
      6          6           0        0.203742   -0.963806    1.072373
      7          6           0        1.760484   -0.458273   -0.700706
      8          7           0        2.684425   -0.804126   -1.255547
      9          7           0        0.878025    2.392818    0.934660
     10          7           0       -0.029498   -1.710353    1.890171
     11          6           0       -1.971286    0.489925   -0.514155
     12          1           0       -2.015844    1.518571   -0.198896
     13          6           0       -3.036960   -0.276457   -0.407606
     14          1           0       -3.032138   -1.307040   -0.716978
     15          1           0       -3.959618    0.099977   -0.006092
 ---------------------------------------------------------------------
 Rotational constants (GHZ):           1.6435706           1.0454692           0.9617190
 Standard basis: GTBas1 (6D, 7F)
 There are   160 symmetry adapted cartesian basis functions of A   symmetry.
 There are   160 symmetry adapted basis functions of A   symmetry.
   160 basis functions,   300 primitive gaussians,   160 cartesian basis functions
    34 alpha electrons       34 beta electrons
       nuclear repulsion energy       428.5757947036 Hartrees.
 NAtoms=   15 NActive=   15 NUniq=   15 SFac= 1.00D+00 NAtFMM=   60 NAOKFM=F Big=F
 Integral buffers will be    131072 words long.
 Raffenetti 1 integral format.
 Two-electron integral symmetry is turned on.
 One-electron integrals computed using PRISM.
 NBasis=   160 RedAO= T EigKep=  6.67D-04  NBF=   160
 NBsUse=   160 1.00D-06 EigRej= -1.00D+00 NBFU=   160
 Initial guess from the checkpoint file:  "/home/artemiy/opt/gaussian/scr/Gau-1760.chk"
 B after Tr=     0.000000   -0.000000   -0.000000
         Rot=    0.999432   -0.026908   -0.014274   -0.014394 Ang=  -3.86 deg.
 ExpMin= 1.61D-01 ExpMax= 4.17D+03 ExpMxC= 6.27D+02 IAcc=2 IRadAn=         4 AccDes= 0.00D+00
 Harris functional with IExCor=  205 and IRadAn=       4 diagonalized for initial guess.
 HarFok:  IExCor=  205 AccDes= 0.00D+00 IRadAn=         4 IDoV= 1 UseB2=F ITyADJ=14
 ICtDFT=  3500011 ScaDFX=  1.000000  1.000000  1.000000  1.000000
 FoFCou: FMM=F IPFlag=           0 FMFlag=      100000 FMFlg1=           0
         NFxFlg=           0 DoJE=T BraDBF=F KetDBF=T FulRan=T
         wScrn=  0.000000 ICntrl=       500 IOpCl=  0 I1Cent=   200000004 NGrid=           0
         NMat0=    1 NMatS0=      1 NMatT0=    0 NMatD0=    1 NMtDS0=    0 NMtDT0=    0
 Petite list used in FoFCou.
 Keep R1 ints in memory in canonical form, NReq=85041264.
 Requested convergence on RMS density matrix=1.00D-08 within 128 cycles.
 Requested convergence on MAX density matrix=1.00D-06.
 Requested convergence on             energy=1.00D-06.
 No special actions if energy rises.
 SCF Done:  E(RHF) =  -431.262683881     A.U. after   13 cycles
            NFock= 13  Conv=0.99D-08     -V/T= 2.0015
 Calling FoFJK, ICntrl=      2127 FMM=F ISym2X=0 I1Cent= 0 IOpClX= 0 NMat=1 NMatS=1 NMatT=0.
 ***** Axes restored to original set *****
 -------------------------------------------------------------------
 Center     Atomic                   Forces (Hartrees/Bohr)
 Number     Number              X              Y              Z
 -------------------------------------------------------------------
      1        6          -0.002040639   -0.000588956   -0.000022830
      2        6          -0.000668913   -0.000947725   -0.001034632
      3        1           0.000345375   -0.000330461    0.000497555
      4        1          -0.000582786    0.000856504   -0.000131180
      5        6          -0.001036244    0.004359784    0.000875250
      6        6           0.002409687   -0.003313766    0.003476284
      7        6          -0.003835952   -0.000988091   -0.001436932
      8        7           0.001868505    0.000583770    0.000902484
      9        7           0.000318460   -0.002171740   -0.000789512
     10        7          -0.001373742    0.001374611   -0.001665950
     11        6           0.004530465   -0.000264461   -0.001038193
     12        1           0.000253952   -0.000201549   -0.000052990
     13        6          -0.000039513    0.001777113    0.000341648
     14        1          -0.000128033    0.000269350   -0.000259656
     15        1          -0.000020623   -0.000414383    0.000338653
 -------------------------------------------------------------------
 Cartesian Forces:  Max     0.004530465 RMS     0.001620082

 GradGradGradGradGradGradGradGradGradGradGradGradGradGradGradGradGradGrad
 Berny optimization.
 Using GEDIIS/GDIIS optimizer.
 FormGI is forming the generalized inverse of G from B-inverse, IUseBI=4.
 Internal  Forces:  Max     0.004215317 RMS     0.001268322
 Search for a local minimum.
 Step number   2 out of a maximum of   67
 All quantities printed in internal units (Hartrees-Bohrs-Radians)
 Mixed Optimization -- RFO/linear search
 Update second derivatives using D2CorX and points    1    2
 DE= -2.85D-03 DEPred=-3.61D-03 R= 7.91D-01
 TightC=F SS=  1.41D+00  RLast= 2.04D-01 DXNew= 5.0454D-01 6.1327D-01
 Trust test= 7.91D-01 RLast= 2.04D-01 DXMaxT set to 5.05D-01
 ITU=  1  0
 Use linear search instead of GDIIS.
     Eigenvalues ---    0.00234   0.00786   0.01776   0.03159   0.03162
     Eigenvalues ---    0.04047   0.05110   0.05127   0.05128   0.05128
     Eigenvalues ---    0.05131   0.05175   0.05633   0.08584   0.08899
     Eigenvalues ---    0.09332   0.12925   0.15954   0.16000   0.16034
     Eigenvalues ---    0.21941   0.22917   0.24865   0.25000   0.25031
     Eigenvalues ---    0.27559   0.32636   0.34386   0.34615   0.35706
     Eigenvalues ---    0.36250   0.36536   0.37329   0.37404   0.40048
     Eigenvalues ---    0.62260   1.41611   1.41712   1.42342
 RFO step:  Lambda=-1.48524296D-04 EMin= 2.34349907D-03
 Quartic linear search produced a step of -0.14139.
 Iteration  1 RMS(Cart)=  0.02191425 RMS(Int)=  0.00016143
 Iteration  2 RMS(Cart)=  0.00017928 RMS(Int)=  0.00003899
 Iteration  3 RMS(Cart)=  0.00000002 RMS(Int)=  0.00003899
 Variable       Old X    -DE/DX   Delta X   Delta X   Delta X     New X
                                 (Linear)    (Quad)   (Total)
    R1        2.97538  -0.00359  -0.00437  -0.00658  -0.01095   2.96443
    R2        2.80537  -0.00215  -0.00750   0.00340  -0.00411   2.80127
    R3        2.80561  -0.00281  -0.00738   0.00176  -0.00563   2.79999
    R4        2.80534  -0.00202  -0.00747   0.00365  -0.00382   2.80153
    R5        2.04680   0.00068   0.00293  -0.00156   0.00137   2.04817
    R6        2.04279   0.00079   0.00314  -0.00151   0.00163   2.04442
    R7        2.85143  -0.00422  -0.00278  -0.00803  -0.01081   2.84062
    R8        2.13884   0.00233   0.00225  -0.00110   0.00115   2.13999
    R9        2.13842   0.00243   0.00224  -0.00103   0.00121   2.13963
   R10        2.13893   0.00215   0.00225  -0.00121   0.00104   2.13997
   R11        2.03485   0.00020   0.00150  -0.00119   0.00031   2.03516
   R12        2.48867   0.00105   0.00055   0.00084   0.00138   2.49006
   R13        2.03340   0.00019   0.00050  -0.00010   0.00040   2.03380
   R14        2.03021   0.00006   0.00033  -0.00021   0.00011   2.03033
    A1        1.92268   0.00055   0.00107   0.00062   0.00170   1.92438
    A2        1.93077  -0.00027  -0.00162  -0.00029  -0.00191   1.92886
    A3        1.90097  -0.00049   0.00272  -0.00349  -0.00076   1.90020
    A4        1.91402  -0.00060  -0.00170  -0.00249  -0.00420   1.90982
    A5        1.89733   0.00042  -0.00040   0.00414   0.00376   1.90109
    A6        1.89753   0.00041  -0.00007   0.00161   0.00153   1.89906
    A7        1.85113   0.00104   0.00472   0.00038   0.00520   1.85634
    A8        1.86329   0.00110   0.00406  -0.00258   0.00157   1.86485
    A9        1.98733  -0.00344  -0.00850  -0.00576  -0.01427   1.97306
   A10        1.88286  -0.00027   0.00245   0.00226   0.00483   1.88770
   A11        1.93122   0.00112  -0.00036   0.00632   0.00590   1.93712
   A12        1.94243   0.00058  -0.00173  -0.00049  -0.00230   1.94014
   A13        3.10946   0.00005   0.00317  -0.00253   0.00064   3.11010
   A14        3.16414  -0.00002  -0.00100   0.00079  -0.00021   3.16393
   A15        3.14618  -0.00172  -0.00221  -0.02629  -0.02851   3.11768
   A16        3.11582   0.00012   0.00175   0.00021   0.00195   3.11777
   A17        3.10219   0.00033   0.00224   0.00313   0.00537   3.10756
   A18        3.12441  -0.00013   0.00058  -0.00277  -0.00219   3.12222
   A19        2.03017   0.00040  -0.00225   0.00361   0.00138   2.03155
   A20        2.16000  -0.00132  -0.00048  -0.00464  -0.00511   2.15489
   A21        2.09295   0.00092   0.00271   0.00092   0.00365   2.09660
   A22        2.12995   0.00049  -0.00026   0.00293   0.00267   2.13262
   A23        2.11915  -0.00057   0.00066  -0.00380  -0.00314   2.11601
   A24        2.03408   0.00008  -0.00040   0.00087   0.00046   2.03454
    D1        1.08895   0.00020  -0.00743   0.02253   0.01516   1.10411
    D2        3.09360   0.00088  -0.00017   0.02411   0.02385   3.11745
    D3       -1.03890   0.00018  -0.00495   0.01787   0.01292  -1.02598
    D4       -3.07515  -0.00036  -0.00992   0.01962   0.00977  -3.06538
    D5       -1.07050   0.00032  -0.00266   0.02120   0.01846  -1.05204
    D6        1.08019  -0.00038  -0.00744   0.01496   0.00753   1.08772
    D7       -0.99054  -0.00033  -0.00930   0.01923   0.01001  -0.98053
    D8        1.01411   0.00034  -0.00204   0.02081   0.01870   1.03281
    D9       -3.11839  -0.00035  -0.00682   0.01458   0.00777  -3.11061
   D10        1.16386   0.00026  -0.00128   0.01515   0.01385   1.17771
   D11       -1.99015   0.00014   0.00313   0.00488   0.00802  -1.98212
   D12       -0.91909   0.00046  -0.00139   0.01403   0.01266  -0.90643
   D13        2.21008   0.00033   0.00301   0.00376   0.00684   2.21692
   D14       -3.01237  -0.00033  -0.00309   0.00729   0.00413  -3.00824
   D15        0.11680  -0.00045   0.00132  -0.00298  -0.00169   0.11511
   D16        0.00690   0.00031  -0.00251   0.01203   0.00954   0.01644
   D17       -3.13330   0.00043  -0.00174   0.01467   0.01296  -3.12033
   D18        3.13565   0.00018   0.00210   0.00142   0.00349   3.13914
   D19       -0.00455   0.00030   0.00287   0.00407   0.00691   0.00237
         Item               Value     Threshold  Converged?
 Maximum Force            0.004215     0.000450     NO 
 RMS     Force            0.001268     0.000300     NO 
 Maximum Displacement     0.080629     0.001800     NO 
 RMS     Displacement     0.021937     0.001200     NO 
 Predicted change in Energy=-1.561201D-04
 GradGradGradGradGradGradGradGradGradGradGradGradGradGradGradGradGradGrad

                          Input orientation:                          
 ---------------------------------------------------------------------
 Center     Atomic      Atomic             Coordinates (Angstroms)
 Number     Number       Type             X           Y           Z
 ---------------------------------------------------------------------
      1          6           0        0.450936    0.026167    0.043250
      2          6           0       -0.668338    0.002088    1.142112
      3          1           0       -0.294628   -0.622881    1.944902
      4          1           0       -0.761486    1.012628    1.517015
      5          6           0        0.664969   -1.335825   -0.501339
      6          6           0        0.077612    0.944227   -1.058202
      7          6           0        1.714009    0.503098    0.655624
      8          7           0        2.658617    0.870646    1.160602
      9          7           0        0.802681   -2.391980   -0.886011
     10          7           0       -0.234060    1.661218   -1.877201
     11          6           0       -1.985349   -0.510099    0.629544
     12          1           0       -2.019913   -1.550581    0.353779
     13          6           0       -3.066007    0.237082    0.528634
     14          1           0       -3.069535    1.279336    0.796932
     15          1           0       -3.994787   -0.171338    0.175219
 ---------------------------------------------------------------------
                    Distance matrix (angstroms):
                    1          2          3          4          5
     1  C    0.000000
     2  C    1.568710   0.000000
     3  H    2.143224   1.083844   0.000000
     4  H    2.148268   1.081860   1.753834   0.000000
     5  C    1.482366   2.503727   2.722721   3.409363   0.000000
     6  C    1.481689   2.507080   3.407789   2.709337   2.419446
     7  C    1.482504   2.482592   2.639070   2.670148   2.412610
     8  N    2.614474   3.438513   3.401089   3.441554   3.406640
     9  N    2.614324   3.465363   3.513953   4.451124   1.132432
    10  N    2.613569   3.472400   4.453005   3.495647   3.418116
    11  C    2.562578   1.503189   2.145093   2.145726   2.997483
    12  H    2.947483   2.204314   2.523669   3.083309   2.825940
    13  C    3.556539   2.486040   3.228915   2.624726   4.177926
    14  H    3.812110   2.741579   3.554768   2.432436   4.740369
    15  H    4.452064   3.468460   4.126360   3.695460   4.850473
                    6          7          8          9         10
     6  C    0.000000
     7  C    2.410309   0.000000
     8  N    3.404422   1.132421   0.000000
     9  N    3.418428   3.404209   4.275261   0.000000
    10  N    1.132244   3.398738   4.268587   4.299501   0.000000
    11  C    3.036339   3.835687   4.873900   3.689376   3.750387
    12  H    3.552093   4.272105   5.329348   3.195633   4.299092
    13  C    3.591719   4.789097   5.794144   4.886710   3.979463
    14  H    3.668563   4.848176   5.754216   5.595080   3.916215
    15  H    4.398891   5.768536   6.806210   5.391953   4.659802
                   11         12         13         14         15
    11  C    0.000000
    12  H    1.076960   0.000000
    13  C    1.317682   2.078612   0.000000
    14  H    2.098942   3.050659   1.076239   0.000000
    15  H    2.087825   2.415434   1.074403   1.829501   0.000000
 Stoichiometry    C7H5N3
 Framework group  C1[X(C7H5N3)]
 Deg. of freedom    39
 Full point group                 C1      NOp   1
 Largest Abelian subgroup         C1      NOp   1
 Largest concise Abelian subgroup C1      NOp   1
                         Standard orientation:                         
 ---------------------------------------------------------------------
 Center     Atomic      Atomic             Coordinates (Angstroms)
 Number     Number       Type             X           Y           Z
 ---------------------------------------------------------------------
      1          6           0        0.515800   -0.016574   -0.024780
      2          6           0       -0.632635    0.005157   -1.093179
      3          1           0       -0.289495    0.645810   -1.897254
      4          1           0       -0.721241   -1.001746   -1.478817
      5          6           0        0.724718    1.341312    0.531914
      6          6           0        0.185224   -0.954091    1.073938
      7          6           0        1.768794   -0.466982   -0.676667
      8          7           0        2.704766   -0.814088   -1.211318
      9          7           0        0.857473    2.394351    0.926738
     10          7           0       -0.094154   -1.686045    1.891353
     11          6           0       -1.942713    0.491302   -0.539159
     12          1           0       -1.984836    1.527536   -0.248836
     13          6           0       -3.009456   -0.272920   -0.419539
     14          1           0       -3.005182   -1.311582   -0.701412
     15          1           0       -3.934239    0.117230   -0.036263
 ---------------------------------------------------------------------
 Rotational constants (GHZ):           1.6553190           1.0546169           0.9689728
 Standard basis: GTBas1 (6D, 7F)
 There are   160 symmetry adapted cartesian basis functions of A   symmetry.
 There are   160 symmetry adapted basis functions of A   symmetry.
   160 basis functions,   300 primitive gaussians,   160 cartesian basis functions
    34 alpha electrons       34 beta electrons
       nuclear repulsion energy       429.6590665096 Hartrees.
 NAtoms=   15 NActive=   15 NUniq=   15 SFac= 1.00D+00 NAtFMM=   60 NAOKFM=F Big=F
 Integral buffers will be    131072 words long.
 Raffenetti 1 integral format.
 Two-electron integral symmetry is turned on.
 One-electron integrals computed using PRISM.
 NBasis=   160 RedAO= T EigKep=  6.57D-04  NBF=   160
 NBsUse=   160 1.00D-06 EigRej= -1.00D+00 NBFU=   160
 Initial guess from the checkpoint file:  "/home/artemiy/opt/gaussian/scr/Gau-1760.chk"
 B after Tr=     0.000000    0.000000   -0.000000
         Rot=    0.999967    0.004329    0.006805    0.001271 Ang=   0.94 deg.
 ExpMin= 1.61D-01 ExpMax= 4.17D+03 ExpMxC= 6.27D+02 IAcc=2 IRadAn=         4 AccDes= 0.00D+00
 Harris functional with IExCor=  205 and IRadAn=       4 diagonalized for initial guess.
 HarFok:  IExCor=  205 AccDes= 0.00D+00 IRadAn=         4 IDoV= 1 UseB2=F ITyADJ=14
 ICtDFT=  3500011 ScaDFX=  1.000000  1.000000  1.000000  1.000000
 FoFCou: FMM=F IPFlag=           0 FMFlag=      100000 FMFlg1=           0
         NFxFlg=           0 DoJE=T BraDBF=F KetDBF=T FulRan=T
         wScrn=  0.000000 ICntrl=       500 IOpCl=  0 I1Cent=   200000004 NGrid=           0
         NMat0=    1 NMatS0=      1 NMatT0=    0 NMatD0=    1 NMtDS0=    0 NMtDT0=    0
 Petite list used in FoFCou.
 Keep R1 ints in memory in canonical form, NReq=85041264.
 Requested convergence on RMS density matrix=1.00D-08 within 128 cycles.
 Requested convergence on MAX density matrix=1.00D-06.
 Requested convergence on             energy=1.00D-06.
 No special actions if energy rises.
 SCF Done:  E(RHF) =  -431.262814666     A.U. after   12 cycles
            NFock= 12  Conv=0.81D-08     -V/T= 2.0014
 Calling FoFJK, ICntrl=      2127 FMM=F ISym2X=0 I1Cent= 0 IOpClX= 0 NMat=1 NMatS=1 NMatT=0.
 ***** Axes restored to original set *****
 -------------------------------------------------------------------
 Center     Atomic                   Forces (Hartrees/Bohr)
 Number     Number              X              Y              Z
 -------------------------------------------------------------------
      1        6           0.000794532    0.000146214   -0.000064700
      2        6          -0.000191284    0.000188177   -0.000665230
      3        1           0.000061759    0.000037347    0.000077441
      4        1          -0.000058319    0.000055924    0.000172516
      5        6           0.000192004    0.000868139    0.000280541
      6        6          -0.000738018   -0.000775751    0.000842247
      7        6          -0.000349264   -0.000618417   -0.000674457
      8        7           0.000325032    0.000239588    0.000320091
      9        7           0.000052841   -0.000387023   -0.000218824
     10        7           0.000351770    0.000383984   -0.000432114
     11        6           0.000031301   -0.000202771    0.000484054
     12        1          -0.000198239    0.000038921    0.000000838
     13        6          -0.000269491    0.000068778    0.000137573
     14        1           0.000016733   -0.000084369    0.000002606
     15        1          -0.000021357    0.000041257   -0.000262582
 -------------------------------------------------------------------
 Cartesian Forces:  Max     0.000868139 RMS     0.000374734

 GradGradGradGradGradGradGradGradGradGradGradGradGradGradGradGradGradGrad
 Berny optimization.
 Using GEDIIS/GDIIS optimizer.
 FormGI is forming the generalized inverse of G from B-inverse, IUseBI=4.
 Internal  Forces:  Max     0.001064075 RMS     0.000280692
 Search for a local minimum.
 Step number   3 out of a maximum of   67
 All quantities printed in internal units (Hartrees-Bohrs-Radians)
 Mixed Optimization -- En-DIIS/RFO-DIIS
 Update second derivatives using D2CorX and points    1    2    3
 DE= -1.31D-04 DEPred=-1.56D-04 R= 8.38D-01
 TightC=F SS=  1.41D+00  RLast= 6.58D-02 DXNew= 8.4853D-01 1.9738D-01
 Trust test= 8.38D-01 RLast= 6.58D-02 DXMaxT set to 5.05D-01
 ITU=  1  1  0
 Use linear search instead of GDIIS.
     Eigenvalues ---    0.00243   0.00779   0.01802   0.03151   0.03218
     Eigenvalues ---    0.04108   0.05114   0.05127   0.05128   0.05130
     Eigenvalues ---    0.05134   0.05501   0.06390   0.08546   0.08901
     Eigenvalues ---    0.09220   0.12811   0.15893   0.16000   0.16088
     Eigenvalues ---    0.21876   0.23235   0.24703   0.25000   0.25296
     Eigenvalues ---    0.28466   0.33532   0.34413   0.34609   0.35727
     Eigenvalues ---    0.36269   0.36535   0.37305   0.37384   0.37639
     Eigenvalues ---    0.62064   1.40892   1.41631   1.41779
 RFO step:  Lambda=-2.36350176D-05 EMin= 2.43406125D-03
 Quartic linear search produced a step of -0.13861.
 Iteration  1 RMS(Cart)=  0.00849133 RMS(Int)=  0.00003855
 Iteration  2 RMS(Cart)=  0.00004359 RMS(Int)=  0.00000203
 Iteration  3 RMS(Cart)=  0.00000000 RMS(Int)=  0.00000203
 Variable       Old X    -DE/DX   Delta X   Delta X   Delta X     New X
                                 (Linear)    (Quad)   (Total)
    R1        2.96443   0.00041   0.00152  -0.00114   0.00037   2.96481
    R2        2.80127  -0.00043   0.00057  -0.00207  -0.00150   2.79977
    R3        2.79999  -0.00045   0.00078  -0.00243  -0.00165   2.79834
    R4        2.80153  -0.00029   0.00053  -0.00169  -0.00117   2.80036
    R5        2.04817   0.00006  -0.00019   0.00052   0.00033   2.04850
    R6        2.04442   0.00012  -0.00023   0.00073   0.00050   2.04492
    R7        2.84062   0.00031   0.00150  -0.00154  -0.00004   2.84057
    R8        2.13999   0.00044  -0.00016   0.00058   0.00042   2.14041
    R9        2.13963   0.00046  -0.00017   0.00061   0.00044   2.14007
   R10        2.13997   0.00049  -0.00014   0.00059   0.00045   2.14041
   R11        2.03516  -0.00003  -0.00004   0.00004  -0.00000   2.03516
   R12        2.49006   0.00025  -0.00019   0.00064   0.00045   2.49051
   R13        2.03380  -0.00008  -0.00006  -0.00009  -0.00014   2.03365
   R14        2.03033   0.00009  -0.00002   0.00023   0.00022   2.03055
    A1        1.92438   0.00062  -0.00024   0.00232   0.00209   1.92646
    A2        1.92886  -0.00037   0.00026  -0.00163  -0.00137   1.92749
    A3        1.90020   0.00040   0.00011   0.00137   0.00148   1.90168
    A4        1.90982  -0.00017   0.00058  -0.00167  -0.00109   1.90873
    A5        1.90109  -0.00052  -0.00052  -0.00107  -0.00160   1.89949
    A6        1.89906   0.00003  -0.00021   0.00068   0.00047   1.89953
    A7        1.85634  -0.00020  -0.00072   0.00048  -0.00025   1.85609
    A8        1.86485  -0.00009  -0.00022   0.00066   0.00045   1.86530
    A9        1.97306   0.00060   0.00198  -0.00053   0.00145   1.97451
   A10        1.88770   0.00001  -0.00067  -0.00030  -0.00097   1.88673
   A11        1.93712  -0.00013  -0.00082   0.00086   0.00004   1.93716
   A12        1.94014  -0.00021   0.00032  -0.00111  -0.00078   1.93935
   A13        3.11010   0.00005  -0.00009   0.00093   0.00084   3.11094
   A14        3.16393  -0.00015   0.00003  -0.00246  -0.00243   3.16150
   A15        3.11768   0.00106   0.00395   0.01131   0.01526   3.13294
   A16        3.11777  -0.00000  -0.00027   0.00038   0.00011   3.11788
   A17        3.10756  -0.00033  -0.00074  -0.00422  -0.00496   3.10260
   A18        3.12222   0.00002   0.00030  -0.00011   0.00019   3.12241
   A19        2.03155   0.00016  -0.00019   0.00113   0.00094   2.03249
   A20        2.15489   0.00008   0.00071  -0.00075  -0.00004   2.15485
   A21        2.09660  -0.00024  -0.00051  -0.00034  -0.00084   2.09575
   A22        2.13262  -0.00004  -0.00037   0.00033  -0.00004   2.13258
   A23        2.11601   0.00004   0.00044  -0.00041   0.00002   2.11603
   A24        2.03454   0.00000  -0.00006   0.00010   0.00003   2.03458
    D1        1.10411   0.00008  -0.00210   0.01209   0.00999   1.11410
    D2        3.11745  -0.00004  -0.00331   0.01228   0.00897   3.12643
    D3       -1.02598   0.00001  -0.00179   0.01101   0.00922  -1.01675
    D4       -3.06538   0.00003  -0.00135   0.01046   0.00910  -3.05628
    D5       -1.05204  -0.00009  -0.00256   0.01065   0.00809  -1.04395
    D6        1.08772  -0.00003  -0.00104   0.00938   0.00834   1.09605
    D7       -0.98053   0.00010  -0.00139   0.01116   0.00978  -0.97075
    D8        1.03281  -0.00002  -0.00259   0.01135   0.00876   1.04157
    D9       -3.11061   0.00003  -0.00108   0.01009   0.00901  -3.10161
   D10        1.17771  -0.00005  -0.00192   0.00293   0.00101   1.17873
   D11       -1.98212   0.00003  -0.00111   0.00557   0.00446  -1.97767
   D12       -0.90643  -0.00011  -0.00176   0.00207   0.00032  -0.90611
   D13        2.21692  -0.00003  -0.00095   0.00471   0.00376   2.22068
   D14       -3.00824   0.00010  -0.00057   0.00262   0.00204  -3.00620
   D15        0.11511   0.00019   0.00023   0.00525   0.00549   0.12059
   D16        0.01644  -0.00006  -0.00132  -0.00041  -0.00173   0.01471
   D17       -3.12033  -0.00026  -0.00180  -0.00499  -0.00678  -3.12712
   D18        3.13914   0.00003  -0.00048   0.00234   0.00185   3.14099
   D19        0.00237  -0.00017  -0.00096  -0.00224  -0.00320  -0.00084
         Item               Value     Threshold  Converged?
 Maximum Force            0.001064     0.000450     NO 
 RMS     Force            0.000281     0.000300     YES
 Maximum Displacement     0.029878     0.001800     NO 
 RMS     Displacement     0.008502     0.001200     NO 
 Predicted change in Energy=-1.520515D-05
 GradGradGradGradGradGradGradGradGradGradGradGradGradGradGradGradGradGrad

                          Input orientation:                          
 ---------------------------------------------------------------------
 Center     Atomic      Atomic             Coordinates (Angstroms)
 Number     Number       Type             X           Y           Z
 ---------------------------------------------------------------------
      1          6           0        0.449696    0.026783    0.043370
      2          6           0       -0.668935    0.005250    1.143222
      3          1           0       -0.292309   -0.613949    1.949353
      4          1           0       -0.764916    1.017520    1.513483
      5          6           0        0.660456   -1.333406   -0.504831
      6          6           0        0.076751    0.946653   -1.055524
      7          6           0        1.715375    0.498201    0.653134
      8          7           0        2.659547    0.864657    1.160245
      9          7           0        0.796034   -2.388019   -0.895112
     10          7           0       -0.218249    1.668564   -1.876694
     11          6           0       -1.985668   -0.513061    0.636195
     12          1           0       -2.019425   -1.555287    0.366997
     13          6           0       -3.067269    0.232257    0.528705
     14          1           0       -3.071995    1.276566    0.788562
     15          1           0       -3.994370   -0.178943    0.173757
 ---------------------------------------------------------------------
                    Distance matrix (angstroms):
                    1          2          3          4          5
     1  C    0.000000
     2  C    1.568908   0.000000
     3  H    2.143334   1.084021   0.000000
     4  H    2.148971   1.082127   1.753577   0.000000
     5  C    1.481573   2.505066   2.729175   3.410591   0.000000
     6  C    1.480816   2.505348   3.406019   2.704297   2.417156
     7  C    1.481887   2.483570   2.635878   2.676142   2.410087
     8  N    2.613979   3.437682   3.394469   3.446025   3.405925
     9  N    2.613803   3.468238   3.524599   4.453717   1.132656
    10  N    2.613090   3.477013   4.455781   3.495139   3.415546
    11  C    2.563956   1.503166   2.145233   2.145355   2.996144
    12  H    2.950295   2.204909   2.524460   3.083433   2.826849
    13  C    3.556235   2.486196   3.230280   2.624358   4.173179
    14  H    3.810456   2.741665   3.556421   2.432124   4.734554
    15  H    4.450735   3.468762   4.128828   3.695370   4.843621
                    6          7          8          9         10
     6  C    0.000000
     7  C    2.409504   0.000000
     8  N    3.403997   1.132657   0.000000
     9  N    3.415133   3.401841   4.275169   0.000000
    10  N    1.132475   3.392445   4.260396   4.295130   0.000000
    11  C    3.040765   3.836751   4.873475   3.687579   3.768006
    12  H    3.560509   4.271699   5.327114   3.195806   4.321065
    13  C    3.592353   4.791647   5.796136   4.880391   3.995727
    14  H    3.663891   4.852123   5.758332   5.587986   3.924425
    15  H    4.399104   5.769706   6.807119   5.382422   4.677255
                   11         12         13         14         15
    11  C    0.000000
    12  H    1.076960   0.000000
    13  C    1.317920   2.078327   0.000000
    14  H    2.099067   3.050412   1.076163   0.000000
    15  H    2.088149   2.414968   1.074519   1.829554   0.000000
 Stoichiometry    C7H5N3
 Framework group  C1[X(C7H5N3)]
 Deg. of freedom    39
 Full point group                 C1      NOp   1
 Largest Abelian subgroup         C1      NOp   1
 Largest concise Abelian subgroup C1      NOp   1
                         Standard orientation:                         
 ---------------------------------------------------------------------
 Center     Atomic      Atomic             Coordinates (Angstroms)
 Number     Number       Type             X           Y           Z
 ---------------------------------------------------------------------
      1          6           0        0.514193   -0.015168   -0.026745
      2          6           0       -0.636548    0.002657   -1.093024
      3          1           0       -0.294920    0.640834   -1.899945
      4          1           0       -0.725336   -1.005446   -1.476225
      5          6           0        0.716731    1.340144    0.536429
      6          6           0        0.190223   -0.958319    1.067936
      7          6           0        1.769566   -0.454041   -0.680518
      8          7           0        2.704775   -0.795419   -1.220663
      9          7           0        0.844928    2.390996    0.939152
     10          7           0       -0.067555   -1.697916    1.885888
     11          6           0       -1.946807    0.489040   -0.539705
     12          1           0       -1.991190    1.526257   -0.253255
     13          6           0       -3.011318   -0.277470   -0.412463
     14          1           0       -3.005083   -1.317614   -0.688487
     15          1           0       -3.934745    0.111269   -0.024191
 ---------------------------------------------------------------------
 Rotational constants (GHZ):           1.6548285           1.0541751           0.9693358
 Standard basis: GTBas1 (6D, 7F)
 There are   160 symmetry adapted cartesian basis functions of A   symmetry.
 There are   160 symmetry adapted basis functions of A   symmetry.
   160 basis functions,   300 primitive gaussians,   160 cartesian basis functions
    34 alpha electrons       34 beta electrons
       nuclear repulsion energy       429.6520864419 Hartrees.
 NAtoms=   15 NActive=   15 NUniq=   15 SFac= 1.00D+00 NAtFMM=   60 NAOKFM=F Big=F
 Integral buffers will be    131072 words long.
 Raffenetti 1 integral format.
 Two-electron integral symmetry is turned on.
 One-electron integrals computed using PRISM.
 NBasis=   160 RedAO= T EigKep=  6.58D-04  NBF=   160
 NBsUse=   160 1.00D-06 EigRej= -1.00D+00 NBFU=   160
 Initial guess from the checkpoint file:  "/home/artemiy/opt/gaussian/scr/Gau-1760.chk"
 B after Tr=    -0.000000   -0.000000    0.000000
         Rot=    0.999994   -0.002313   -0.001299   -0.002295 Ang=  -0.40 deg.
 ExpMin= 1.61D-01 ExpMax= 4.17D+03 ExpMxC= 6.27D+02 IAcc=2 IRadAn=         4 AccDes= 0.00D+00
 Harris functional with IExCor=  205 and IRadAn=       4 diagonalized for initial guess.
 HarFok:  IExCor=  205 AccDes= 0.00D+00 IRadAn=         4 IDoV= 1 UseB2=F ITyADJ=14
 ICtDFT=  3500011 ScaDFX=  1.000000  1.000000  1.000000  1.000000
 FoFCou: FMM=F IPFlag=           0 FMFlag=      100000 FMFlg1=           0
         NFxFlg=           0 DoJE=T BraDBF=F KetDBF=T FulRan=T
         wScrn=  0.000000 ICntrl=       500 IOpCl=  0 I1Cent=   200000004 NGrid=           0
         NMat0=    1 NMatS0=      1 NMatT0=    0 NMatD0=    1 NMtDS0=    0 NMtDT0=    0
 Petite list used in FoFCou.
 Keep R1 ints in memory in canonical form, NReq=85041264.
 Requested convergence on RMS density matrix=1.00D-08 within 128 cycles.
 Requested convergence on MAX density matrix=1.00D-06.
 Requested convergence on             energy=1.00D-06.
 No special actions if energy rises.
 SCF Done:  E(RHF) =  -431.262824239     A.U. after   10 cycles
            NFock= 10  Conv=0.89D-08     -V/T= 2.0014
 Calling FoFJK, ICntrl=      2127 FMM=F ISym2X=0 I1Cent= 0 IOpClX= 0 NMat=1 NMatS=1 NMatT=0.
 ***** Axes restored to original set *****
 -------------------------------------------------------------------
 Center     Atomic                   Forces (Hartrees/Bohr)
 Number     Number              X              Y              Z
 -------------------------------------------------------------------
      1        6          -0.000069041   -0.000068423    0.000099632
      2        6           0.000092368   -0.000017503    0.000163588
      3        1          -0.000040353    0.000038325   -0.000005011
      4        1           0.000098764   -0.000078887    0.000036305
      5        6           0.000056908   -0.000405147   -0.000164189
      6        6           0.000220449    0.000341015   -0.000460977
      7        6           0.000148241    0.000292788    0.000221140
      8        7          -0.000127866   -0.000139155   -0.000148278
      9        7           0.000001713    0.000221120    0.000093853
     10        7          -0.000129495   -0.000174100    0.000224189
     11        6          -0.000147794    0.000006499   -0.000007208
     12        1          -0.000092524    0.000035630    0.000052868
     13        6           0.000005556   -0.000012815   -0.000223399
     14        1          -0.000007518   -0.000036306    0.000075680
     15        1          -0.000009408   -0.000003040    0.000041809
 -------------------------------------------------------------------
 Cartesian Forces:  Max     0.000460977 RMS     0.000157062

 GradGradGradGradGradGradGradGradGradGradGradGradGradGradGradGradGradGrad
 Berny optimization.
 Using GEDIIS/GDIIS optimizer.
 FormGI is forming the generalized inverse of G from B-inverse, IUseBI=4.
 Internal  Forces:  Max     0.000425204 RMS     0.000110301
 Search for a local minimum.
 Step number   4 out of a maximum of   67
 All quantities printed in internal units (Hartrees-Bohrs-Radians)
 Mixed Optimization -- En-DIIS/RFO-DIIS
 Swapping is turned off.
 Update second derivatives using D2CorX and points    1    2    3    4
 DE= -9.57D-06 DEPred=-1.52D-05 R= 6.30D-01
 TightC=F SS=  1.41D+00  RLast= 3.40D-02 DXNew= 8.4853D-01 1.0211D-01
 Trust test= 6.30D-01 RLast= 3.40D-02 DXMaxT set to 5.05D-01
 ITU=  1  1  1  0
     Eigenvalues ---    0.00309   0.00739   0.01799   0.03171   0.03203
     Eigenvalues ---    0.04026   0.05091   0.05128   0.05128   0.05131
     Eigenvalues ---    0.05136   0.05614   0.08136   0.08532   0.09020
     Eigenvalues ---    0.09309   0.12889   0.15608   0.16000   0.16035
     Eigenvalues ---    0.21768   0.23209   0.23857   0.24994   0.25289
     Eigenvalues ---    0.28184   0.32829   0.34405   0.34654   0.35691
     Eigenvalues ---    0.36246   0.36530   0.37290   0.37434   0.39226
     Eigenvalues ---    0.61898   1.41525   1.41676   1.42002
 En-DIIS/RFO-DIIS/Sim-DIIS IScMMF=       -3 using points:     4    3
 RFO step:  Lambda=-6.85047191D-06.
 DidBck=T Rises=F RFO-DIIS coefs:    0.31601    0.68399
 Iteration  1 RMS(Cart)=  0.00796052 RMS(Int)=  0.00001412
 Iteration  2 RMS(Cart)=  0.00002428 RMS(Int)=  0.00000065
 Iteration  3 RMS(Cart)=  0.00000000 RMS(Int)=  0.00000065
 Variable       Old X    -DE/DX   Delta X   Delta X   Delta X     New X
                                 (Linear)    (Quad)   (Total)
    R1        2.96481   0.00017  -0.00026   0.00069   0.00044   2.96524
    R2        2.79977   0.00020   0.00103  -0.00065   0.00037   2.80014
    R3        2.79834   0.00026   0.00113  -0.00071   0.00041   2.79875
    R4        2.80036   0.00010   0.00080  -0.00057   0.00023   2.80059
    R5        2.04850  -0.00004  -0.00023   0.00011  -0.00012   2.04838
    R6        2.04492  -0.00007  -0.00035   0.00019  -0.00016   2.04476
    R7        2.84057   0.00024   0.00003   0.00038   0.00041   2.84098
    R8        2.14041  -0.00024  -0.00029   0.00017  -0.00012   2.14029
    R9        2.14007  -0.00024  -0.00030   0.00018  -0.00012   2.13995
   R10        2.14041  -0.00022  -0.00031   0.00020  -0.00011   2.14030
   R11        2.03516  -0.00004   0.00000  -0.00014  -0.00014   2.03502
   R12        2.49051  -0.00001  -0.00031   0.00036   0.00005   2.49056
   R13        2.03365  -0.00002   0.00010  -0.00016  -0.00006   2.03359
   R14        2.03055  -0.00000  -0.00015   0.00016   0.00001   2.03056
    A1        1.92646   0.00007  -0.00143   0.00199   0.00057   1.92703
    A2        1.92749   0.00001   0.00094  -0.00108  -0.00015   1.92735
    A3        1.90168  -0.00005  -0.00101   0.00091  -0.00010   1.90158
    A4        1.90873  -0.00002   0.00074  -0.00084  -0.00009   1.90864
    A5        1.89949  -0.00000   0.00109  -0.00119  -0.00010   1.89939
    A6        1.89953  -0.00003  -0.00032   0.00019  -0.00014   1.89939
    A7        1.85609   0.00004   0.00017   0.00016   0.00033   1.85643
    A8        1.86530  -0.00008  -0.00031  -0.00037  -0.00068   1.86462
    A9        1.97451   0.00007  -0.00099   0.00156   0.00056   1.97508
   A10        1.88673  -0.00003   0.00066  -0.00125  -0.00058   1.88614
   A11        1.93716  -0.00001  -0.00003   0.00048   0.00045   1.93761
   A12        1.93935   0.00001   0.00054  -0.00069  -0.00015   1.93920
   A13        3.11094   0.00005  -0.00058   0.00130   0.00073   3.11166
   A14        3.16150   0.00004   0.00166  -0.00140   0.00026   3.16177
   A15        3.13294  -0.00043  -0.01044   0.00653  -0.00391   3.12903
   A16        3.11788  -0.00004  -0.00008  -0.00047  -0.00054   3.11734
   A17        3.10260   0.00021   0.00339  -0.00134   0.00205   3.10465
   A18        3.12241  -0.00005  -0.00013  -0.00059  -0.00073   3.12169
   A19        2.03249   0.00005  -0.00064   0.00113   0.00049   2.03298
   A20        2.15485   0.00006   0.00003   0.00007   0.00010   2.15495
   A21        2.09575  -0.00011   0.00058  -0.00117  -0.00059   2.09516
   A22        2.13258  -0.00002   0.00003  -0.00007  -0.00004   2.13254
   A23        2.11603   0.00002  -0.00001  -0.00000  -0.00001   2.11602
   A24        2.03458   0.00001  -0.00002   0.00007   0.00005   2.03463
    D1        1.11410  -0.00001  -0.00683  -0.00198  -0.00882   1.10529
    D2        3.12643  -0.00006  -0.00614  -0.00350  -0.00964   3.11678
    D3       -1.01675  -0.00006  -0.00631  -0.00364  -0.00995  -1.02671
    D4       -3.05628   0.00003  -0.00623  -0.00243  -0.00866  -3.06493
    D5       -1.04395  -0.00002  -0.00553  -0.00395  -0.00948  -1.05344
    D6        1.09605  -0.00002  -0.00570  -0.00409  -0.00979   1.08626
    D7       -0.97075  -0.00002  -0.00669  -0.00229  -0.00897  -0.97973
    D8        1.04157  -0.00008  -0.00599  -0.00381  -0.00980   1.03177
    D9       -3.10161  -0.00008  -0.00616  -0.00395  -0.01011  -3.11172
   D10        1.17873   0.00007  -0.00069   0.00383   0.00314   1.18187
   D11       -1.97767   0.00007  -0.00305   0.00627   0.00322  -1.97445
   D12       -0.90611  -0.00001  -0.00022   0.00222   0.00201  -0.90410
   D13        2.22068  -0.00002  -0.00257   0.00466   0.00208   2.22277
   D14       -3.00620   0.00002  -0.00140   0.00394   0.00255  -3.00365
   D15        0.12059   0.00002  -0.00375   0.00638   0.00262   0.12322
   D16        0.01471  -0.00007   0.00118  -0.00260  -0.00142   0.01329
   D17       -3.12712   0.00004   0.00464  -0.00445   0.00019  -3.12693
   D18        3.14099  -0.00007  -0.00127  -0.00007  -0.00133   3.13966
   D19       -0.00084   0.00003   0.00219  -0.00192   0.00027  -0.00056
         Item               Value     Threshold  Converged?
 Maximum Force            0.000425     0.000450     YES
 RMS     Force            0.000110     0.000300     YES
 Maximum Displacement     0.023747     0.001800     NO 
 RMS     Displacement     0.007961     0.001200     NO 
 Predicted change in Energy=-3.426648D-06
 GradGradGradGradGradGradGradGradGradGradGradGradGradGradGradGradGradGrad

                          Input orientation:                          
 ---------------------------------------------------------------------
 Center     Atomic      Atomic             Coordinates (Angstroms)
 Number     Number       Type             X           Y           Z
 ---------------------------------------------------------------------
[...]
     8  N    0.271478   6.762815  -0.001381  -0.001110   0.020746  -0.000042
     9  N    0.042371  -0.001381   6.710602   0.000285  -0.034839  -0.000199
    10  N    0.015478  -0.001110   0.000285   6.704456  -0.015886   0.000313
    11  C   -0.532387   0.020746  -0.034839  -0.015886   5.868984   0.404735
    12  H   -0.003671  -0.000042  -0.000199   0.000313   0.404735   0.481093
    13  C    0.028468  -0.001122  -0.000050  -0.000894   0.278429  -0.029181
    14  H   -0.008368   0.000265  -0.000393  -0.004206   0.004298   0.000121
    15  H   -0.000829   0.000060  -0.000158   0.000533  -0.027889  -0.008130
              13         14         15
     1  C    0.082914  -0.010160  -0.004159
     2  C    0.017867  -0.014250   0.019490
     3  H   -0.005752   0.002952   0.000109
     4  H    0.007525  -0.003312  -0.002865
     5  C   -0.028384   0.005321  -0.002652
     6  C    0.085546   0.008120   0.005385
     7  C    0.028468  -0.008368  -0.000829
     8  N   -0.001122   0.000265   0.000060
     9  N   -0.000050  -0.000393  -0.000158
    10  N   -0.000894  -0.004206   0.000533
    11  C    0.278429   0.004298  -0.027889
    12  H   -0.029181   0.000121  -0.008130
    13  C    5.230929   0.397900   0.408309
    14  H    0.397900   0.543742  -0.021140
    15  H    0.408309  -0.021140   0.513080
 Mulliken charges:
               1
     1  C    1.465327
     2  C   -0.144072
     3  H    0.134899
     4  H    0.160452
     5  C   -0.246147
     6  C   -0.279386
     7  C   -0.236588
     8  N   -0.271887
     9  N   -0.273554
    10  N   -0.271236
    11  C    0.051188
    12  H    0.163541
    13  C   -0.472504
    14  H    0.099111
    15  H    0.120857
 Sum of Mulliken charges =  -0.00000
 Mulliken charges with hydrogens summed into heavy atoms:
               1
     1  C    1.465327
     2  C    0.151279
     5  C   -0.246147
     6  C   -0.279386
     7  C   -0.236588
     8  N   -0.271887
     9  N   -0.273554
    10  N   -0.271236
    11  C    0.214729
    13  C   -0.252537
 Electronic spatial extent (au):  <R**2>=           1380.0818
 Charge=             -0.0000 electrons
 Dipole moment (field-independent basis, Debye):
    X=             -3.4934    Y=              0.0425    Z=             -2.7530  Tot=              4.4480
 Quadrupole moment (field-independent basis, Debye-Ang):
   XX=            -63.0918   YY=            -68.5391   ZZ=            -64.6270
   XY=              0.6046   XZ=              4.0062   YZ=              0.4295
 Traceless Quadrupole moment (field-independent basis, Debye-Ang):
   XX=              2.3275   YY=             -3.1198   ZZ=              0.7923
   XY=              0.6046   XZ=              4.0062   YZ=              0.4295
 Octapole moment (field-independent basis, Debye-Ang**2):
  XXX=            -52.3212  YYY=            -13.8493  ZZZ=            -12.2508  XYY=            -13.2266
  XXY=              6.0758  XXZ=             14.5980  XZZ=             -0.8148  YZZ=              7.0523
  YYZ=            -18.7364  XYZ=            -10.6659
 Hexadecapole moment (field-independent basis, Debye-Ang**3):
 XXXX=          -1018.6435 YYYY=           -599.6348 ZZZZ=           -424.2659 XXXY=             35.2557
 XXXZ=             24.7743 YYYX=            -17.7790 YYYZ=             -6.5348 ZZZX=              3.6387
 ZZZY=             12.8555 XXYY=           -261.9781 XXZZ=           -265.3238 YYZZ=           -181.2432
 XXYZ=             -7.6698 YYXZ=              2.4116 ZZXY=              1.7106
 N-N= 4.276917010264D+02 E-N=-1.860087583957D+03  KE= 4.302695508201D+02
 1\1\GINC-ARTEMIY-VIRTUALBOX\SP\RMP2\GTMP2large\C7H5N3\ARTEMIY\17-Jun-2
 022\0\\#N Geom=AllCheck Guess=TCheck SCRF=Check MP2=FrzG3/GTMP2Large\\
 Title Card Required\\0,1\C,0,0.4384701959,0.0270421492,0.0642449062\C,
 0,-0.6536148252,-0.0207659165,1.1834935541\H,0,-0.2572434031,-0.655516
 8317,1.9839211593\H,0,-0.7556625802,0.997660826,1.5721301829\C,0,0.632
 6287501,-1.3232672868,-0.4928358683\C,0,0.0018397916,0.9418173965,-1.0
 039974568\C,0,1.7084833238,0.5091767007,0.6344084828\N,0,2.7010028942,
 0.9001912068,1.1414873801\N,0,0.757423604,-2.4232637368,-0.9044071427\
 N,0,-0.3763350994,1.6967901154,-1.8296789502\C,0,-1.9555552521,-0.5338
 481138,0.6548833745\H,0,-2.0106130482,-1.5954451884,0.4217322414\C,0,-
 3.017292742,0.2551855843,0.4555409031\H,0,-2.9905859447,1.3175021561,0
 .6802634091\H,0,-3.9482223134,-0.1394723708,0.0636765002\\Version=ES64
 L-G16RevA.03\State=1-A\HF=-431.3716823\MP2=-433.0395951\RMSD=7.868e-09
 \PG=C01 [X(C7H5N3)]\\@


 THEREFORE SHALL EVIL COME UPON THEE...
 THOU SHALT NOT KNOW FROM WHENCE IT RISETH...
 AND MISCHIEF SHALL FALL UPON THEE...
 THOU SHALT NOT BE ABLE TO PUT IT OFF...
 AND DESOLATION SHALL COME UPON THEE SUDDENLY...
 WHICH THOU SHALT NOT KNOW...

                                         ISAIAH 47.11
 Diagonal vibrational polarizability:
        0.0000000       0.0000000       0.0000000
 
 Temperature=              298.150000 Pressure=                      1.000000
 E(ZPE)=                     0.101065 E(Thermal)=                    0.111387
 E(QCISD(T))=             -432.718536 E(Empiric)=                   -0.222696
 DE(MP2)=                   -0.419298
 G3MP2(0 K)=              -433.259465 G3MP2 Energy=               -433.249143
 G3MP2 Enthalpy=          -433.248199 G3MP2 Free Energy=          -433.295603
 1\1\GINC-ARTEMIY-VIRTUALBOX\Mixed\G3MP2\G3MP2\C7H5N3\ARTEMIY\17-Jun-20
 22\0\\# g3mp2 geom=gic\\Title Card Required\\0,1\C,0,0.4384701959,0.02
 70421492,0.0642449062\C,0,-0.6536148252,-0.0207659165,1.1834935541\H,0
 ,-0.2572434031,-0.6555168317,1.9839211593\H,0,-0.7556625802,0.99766082
 6,1.5721301829\C,0,0.6326287501,-1.3232672868,-0.4928358683\C,0,0.0018
 397916,0.9418173965,-1.0039974568\C,0,1.7084833238,0.5091767007,0.6344
 084828\N,0,2.7010028942,0.9001912068,1.1414873801\N,0,0.757423604,-2.4
 232637368,-0.9044071427\N,0,-0.3763350994,1.6967901154,-1.8296789502\C
 ,0,-1.9555552521,-0.5338481138,0.6548833745\H,0,-2.0106130482,-1.59544
 51884,0.4217322414\C,0,-3.017292742,0.2551855843,0.4555409031\H,0,-2.9
 905859447,1.3175021561,0.6802634091\H,0,-3.9482223134,-0.1394723708,0.
 0636765002\\Version=ES64L-G16RevA.03\State=1-A\MP2/G3Bas1=-432.6202976
 \QCISD(T)/G3Bas1=-432.7185357\MP2/GTMP2Large=-433.0395951\G3MP2=-433.2
 594647\FreqCoord=0.8494366298,0.0493913028,0.0828247597,-1.2632345893,
 0.0030212062,2.1631406314,-0.5516846972,-1.1733315458,3.6815759121,-1.
 4404027669,1.9133524273,2.8704656721,1.2543696503,-2.5203542348,-0.953
 4125572,0.138821121,1.7864904796,-1.9937037358,3.2395716504,0.94699928
 57,1.2339705869,5.0248587546,1.6413198137,2.1886590842,1.516821951,-4.
 5126207782,-1.6900958539,-0.431783107,3.1483640298,-3.5425551811,-3.75
 44118935,-0.9694756916,1.2038377772,-3.8256052663,-2.9400035574,0.7003
 728794,-5.7926861595,0.4459525343,0.9926822344,-5.7957871245,2.4201697
 595,1.4806081831,-7.5463935047,-0.3266055298,0.3213534281\PG=C01 [X(C7
 H5N3)]\NImag=0\\0.50369032,-0.00325618,0.58262021,0.07153461,0.0009467
 7,0.51660272,-0.10935789,-0.00174985,0.02172000,0.52786731,0.00034338,
 -0.09058893,-0.00286340,-0.03054999,0.70774226,0.03068337,0.00063827,-
 0.11746016,0.08927304,0.00064442,0.55555877,0.00547329,-0.01716616,0.0
 2446131,-0.09233720,0.06192340,-0.08031299,0.10532545,0.00037592,0.000
 06176,-0.00152156,0.05747178,-0.16184480,0.12361463,-0.06246694,0.1657
 7056,-0.00488014,0.01679535,-0.02422094,-0.07459073,0.12165303,-0.2159
 4248,0.07823567,-0.13626279,0.23367264,-0.00604514,0.02526066,0.011100
 38,-0.06149517,0.02385733,0.00705153,-0.00103572,0.01075854,0.00488334
 ,0.07059121,-0.00097310,0.00249293,0.00196434,0.02615763,-0.32247254,-
 0.09494975,0.00156775,-0.01715324,-0.00743844,-0.02626197,0.34240676,0
 .00632479,-0.02576253,-0.01281412,0.00606668,-0.08995770,-0.09365707,-
 0.00250257,0.02597652,0.01312410,-0.01278609,0.10251639,0.09759250,-0.
 08347943,0.02802037,0.00911718,-0.00351366,0.02907691,0.01213061,0.001
 14701,-0.00054566,-0.00081706,-0.00399182,-0.00102987,0.00447833,0.156
 55365,0.02196576,-0.26504775,-0.06731395,0.01207635,0.00031073,-0.0111
 6967,-0.00090204,0.00067190,0.00132905,-0.00125149,0.00016022,0.001235
 69,-0.21033112,1.68928450,0.00716260,-0.07232965,-0.10630147,0.0081366
 6,-0.02890571,-0.01375172,-0.00085341,-0.00077442,0.00042131,0.0042656
 7,0.00077389,-0.00343571,-0.07925176,0.58375192,0.34513047,-0.09667176
 ,0.03500297,-0.04141170,0.01377774,-0.01852761,0.01885030,-0.00504838,
 0.00040265,0.00475697,0.00067198,0.00025778,-0.00032605,-0.00173510,0.
 00887283,-0.00409828,0.25427762,0.03976066,-0.16642882,0.09720395,-0.0
 0759040,-0.00008173,0.00834266,0.00086586,0.00049646,-0.00062129,0.000
 47657,0.00079187,-0.00166627,0.01245655,-0.03682635,0.03241596,-0.3058
 6390,0.85697833,-0.04829911,0.09982353,-0.19379417,0.00072712,0.020076
 49,-0.03045428,0.00413501,-0.00006572,-0.00285934,-0.00137218,0.000131
 54,0.00079202,0.00489079,-0.00539100,0.01261943,0.34967181,-0.83465454
 ,1.08240994,-0.22991688,-0.05877386,-0.08302210,-0.03743677,-0.0116571
 9,-0.00463571,0.00145863,-0.00013968,-0.00140781,0.00071260,0.00008484
 ,-0.00134024,0.00352429,-0.00461676,0.00086086,-0.01594516,-0.00024993
 ,-0.01051975,1.39257095,-0.05718535,-0.10340874,-0.03061282,-0.0052327
 2,0.00000877,0.00296563,-0.00091951,-0.00012813,-0.00043492,0.00166283
 ,0.00048424,-0.00011616,-0.03900022,-0.02009119,-0.02068774,0.02404611
 ,0.01063601,0.01178876,0.49035307,0.31697195,-0.07678983,-0.02903402,-
 0.11949899,0.01947467,0.00997031,0.01778351,0.00106491,0.00072611,0.00
 020660,0.00054631,-0.00023948,0.00029363,-0.01630616,-0.01268550,-0.00
 939765,-0.03462036,-0.00684007,-0.02031790,0.66834830,0.25871767,0.480
 04321,0.00950541,-0.00330672,-0.00399759,0.00294581,0.00014190,-0.0025
 3597,-0.00016630,-0.00003627,0.00034167,-0.00007488,0.00004325,0.00022
 612,-0.00303735,-0.00047738,-0.00165830,-0.00087712,-0.00120424,-0.000
 54958,-1.11274390,-0.41645441,-0.57053155,1.10368491,-0.00346136,0.017
 10496,-0.00122663,0.00060763,-0.00044975,-0.00189600,0.00015809,0.0000
 2220,-0.00000057,-0.00046664,0.00017214,0.00022046,0.00319894,0.001826
 49,0.00134216,-0.00372858,-0.00138988,-0.00148076,-0.41699829,-0.20195
 029,-0.22209957,0.42110573,0.18364790,-0.00498163,-0.00149531,0.017657
 97,-0.00093280,-0.00163588,-0.00541784,-0.00024853,-0.00046074,0.00052
 376,-0.00038525,0.00036426,0.00019229,0.00026751,0.00076155,0.00065764
 ,0.00218276,0.00027278,0.00161543,-0.57266612,-0.22265434,-0.34588328,
 0.57802995,0.22477213,0.32901168,0.01908542,0.00169772,-0.00009545,-0.
 00042385,-0.00327196,-0.00081439,-0.00015120,0.00003500,0.00002721,0.0
 0056995,0.00023844,-0.00060913,-0.06371748,0.17567979,0.06583821,0.000
 61331,-0.00064195,-0.00051224,-0.00042446,0.00461417,0.00182928,0.0005
 8093,-0.00061840,-0.00008145,0.04415450,0.00285250,0.00890812,-0.00490
 068,-0.00383611,-0.00399926,0.00271828,0.00021278,0.00013311,-0.000621
 26,0.00116948,0.00080789,-0.00114296,0.17725164,-1.37336227,-0.4943485
 9,-0.00062240,0.00069525,-0.00077100,0.00109644,-0.00103574,0.00004964
 ,-0.00024459,0.00014749,-0.00008608,-0.17803293,1.36746947,0.00040269,
 -0.00436034,0.01702160,-0.00082989,0.00210059,0.00123423,0.00006415,0.
 00014534,0.00024241,-0.00015503,-0.00007325,0.00031278,0.06616657,-0.4
 9283906,-0.22362228,0.00054788,-0.00477823,-0.00182688,-0.00012581,0.0
 0067445,0.00093287,0.00014617,-0.00010678,-0.00001269,-0.06628567,0.49
 889747,0.20515004,0.01914334,0.00227878,-0.00387155,-0.00457427,0.0030
 0845,-0.00157035,0.00135029,-0.00035422,-0.00088626,0.00005866,-0.0002
 1379,-0.00018574,0.00038853,-0.00036540,-0.00038674,-0.14906462,0.2616
 1180,-0.29716657,0.00145408,-0.00196036,0.00283270,0.00016904,0.000494
 02,-0.00033279,0.00002533,0.00011645,0.00004500,0.13119596,0.00038197,
 0.01396383,0.00549082,0.00359311,-0.00174555,-0.00073585,-0.00103790,0
 .00035992,0.00053574,-0.00033013,0.00017376,0.00047326,-0.00037677,0.0
 0257408,-0.00175617,0.26152195,-0.66401214,0.71047778,0.00035595,-0.00
 242232,0.00253484,0.00023414,0.00058656,-0.00023194,0.00002696,-0.0001
 0040,0.00046649,-0.26411367,0.65027538,-0.00141313,0.00568556,0.011883
 54,-0.00200267,-0.00035637,0.00240103,0.00040631,-0.00006950,-0.000051
 56,0.00021620,-0.00005105,0.00005547,-0.00141212,0.00223722,-0.0033673
 6,-0.29662915,0.70936727,-0.84875191,0.00016717,0.00065985,0.00041365,
 0.00000712,-0.00003701,-0.00001090,0.00017520,0.00005604,0.00073780,0.
 30042441,-0.71737487,0.83677181,-0.03043750,-0.00721376,-0.00170732,-0
 .20760081,-0.04737831,-0.05413404,-0.01299745,-0.00440577,-0.00484012,
 0.00431694,0.00071063,0.00164698,-0.00071082,0.00014871,-0.00047730,0.
 00095040,0.00010039,-0.00080170,-0.00315563,-0.00018650,0.00323829,0.0
 0024321,-0.00021090,-0.00079008,-0.00072563,-0.00084862,-0.00013867,-0
 .00088019,-0.00002420,-0.00037948,0.82184729,0.00386603,0.00171284,0.0
 0250402,-0.04452326,-0.13412976,-0.02448003,0.02240809,0.01154476,0.00
 651782,-0.03370749,-0.01120018,-0.01211310,0.00140529,0.00226595,0.000
 87325,-0.00146482,-0.00107176,0.00033278,0.00097527,0.00071909,-0.0021
 0344,0.00047153,0.00046241,0.00076219,-0.00099052,-0.00098638,-0.00013
 059,-0.00005761,0.00049995,-0.00023907,-0.20559144,0.79824117,0.023167
 72,0.01007988,0.01304571,-0.05196408,-0.02539815,-0.11076974,-0.024432
 16,-0.01216323,-0.00518768,-0.01151374,-0.00317767,-0.00345727,0.00029
 388,0.00068736,0.00111702,0.00078927,0.00070673,0.00090353,0.00485739,
 -0.00033391,-0.00554123,0.00069370,0.00059720,0.00192931,0.00019281,-0
 .00036676,-0.00001887,0.00072787,0.00021231,-0.00023584,0.12208107,0.0
 9768772,0.23964813,0.00073307,-0.00087039,-0.00039431,0.00183044,-0.03
 154998,-0.00839153,0.00102184,0.00093027,0.00004873,-0.00571145,-0.001
 67486,-0.00196145,-0.00133452,-0.00037508,0.00068103,-0.00008784,0.000
 06968,-0.00012042,0.00020841,0.00038431,-0.00004963,-0.00006555,0.0000
 2320,0.00008629,0.00020857,0.00055348,-0.00001858,0.00010114,-0.000026
 82,0.00008431,-0.06931801,-0.01239460,-0.00873027,0.06932656,-0.000592
 96,-0.00046754,-0.00025835,0.00155423,-0.00652962,-0.00230845,-0.00069
 547,0.00049258,-0.00026653,-0.00125416,0.00085247,-0.00064357,-0.00004
 305,-0.00070860,-0.00011841,-0.00003562,-0.00001311,-0.00008594,-0.000
 10135,0.00004953,0.00015736,-0.00004030,0.00000735,-0.00001834,0.00076
 852,0.00056637,0.00001946,0.00000886,0.00002712,0.00010864,-0.00957894
 ,-0.35496734,-0.07705135,0.00898922,0.37490556,-0.00058194,-0.00016425
 ,-0.00004490,-0.00071895,-0.01197314,0.00044619,0.00096027,0.00027891,
 0.00029428,-0.00261750,-0.00097941,0.00056552,0.00061603,-0.00013642,0
 .00015360,0.00003753,0.00011059,-0.00011787,-0.00013316,-0.00003497,0.
 00018293,-0.00007544,0.00000408,-0.00008221,0.00009671,0.00020856,-0.0
 0022202,0.00000370,-0.00003122,-0.00003057,-0.00780124,-0.07719353,-0.
 07036052,0.01252595,0.08661618,0.05634006,-0.00148971,-0.00009599,-0.0
 0294811,-0.02986360,0.01911357,-0.00538984,-0.00298958,-0.00141025,-0.
 00061155,0.00161705,0.00141919,0.00119631,-0.00016252,-0.00045094,-0.0
 0017440,-0.00073417,0.00005750,-0.00006431,-0.00020706,-0.00009179,0.0
 0080751,-0.00014581,-0.00007080,-0.00014148,0.00027239,0.00039084,0.00
 011014,0.00047791,-0.00007218,0.00028754,-0.48853713,0.25262893,-0.052
 76418,0.00610848,-0.00226610,-0.00104381,0.88655365,-0.00500470,-0.001
 45414,0.00005059,-0.00900086,0.01473217,-0.00161122,-0.00400778,-0.000
 81245,-0.00154046,-0.00104948,0.00128346,0.00038590,0.00019023,-0.0010
 2444,-0.00039945,-0.00000886,0.00048904,-0.00034343,-0.00059369,0.0001
 5881,0.00123341,-0.00028847,-0.00024868,-0.00046768,0.00040839,0.00068
 478,-0.00001953,-0.00026029,-0.00039175,-0.00000187,0.25559429,-0.3105
 6367,0.00784187,0.03285224,-0.01560457,0.00331673,-0.16080307,0.790564
 50,-0.00114333,-0.00023362,-0.00185189,-0.01422981,0.00701146,0.004180
 47,-0.00210217,-0.00030003,-0.00054427,0.00069617,0.00108335,0.0001712
 7,-0.00018641,-0.00038880,-0.00012574,0.00010390,0.00028494,-0.0001844
 2,-0.00012702,0.00004651,0.00046278,-0.00003722,-0.00005726,-0.0000102
 0,0.00028094,0.00026828,0.00010328,0.00067198,-0.00021761,0.00023479,-
 0.05154123,0.00686599,-0.07516573,0.00747569,-0.00614816,0.00851975,0.
 16227069,0.11584101,0.21947396,-0.00042425,0.00015411,-0.00012549,0.00
 094347,0.00045138,0.00321957,0.00054750,-0.00014594,0.00004073,-0.0005
 1811,-0.00030783,-0.00041352,0.00007542,0.00010869,-0.00001001,-0.0001
 1212,0.00011646,-0.00003425,-0.00009458,0.00000174,0.00008326,0.000020
 11,-0.00001976,-0.00002578,-0.00009558,-0.00013200,0.00002196,0.000105
 00,-0.00009118,-0.00002381,0.00631262,0.03129130,0.00718378,-0.0034814
 8,0.00368669,-0.00389534,-0.07064336,-0.00580507,-0.00775545,0.0622584
 1,-0.00026010,0.00010427,-0.00002418,-0.00219758,0.00034498,0.00173290
 ,0.00022854,0.00024435,0.00009167,0.00095115,0.00091486,0.00042830,-0.
 00016852,-0.00014679,0.00004218,0.00008238,-0.00012078,0.00003676,0.00
 002430,0.00003025,0.00001403,-0.00000553,0.00000626,-0.00000864,0.0001
 1848,0.00014544,0.00001947,-0.00012093,0.00010305,0.00002389,-0.002449
 84,-0.01569067,-0.00659913,0.00389675,0.00049807,-0.00232765,0.0001480
 3,-0.35901415,-0.07707228,-0.00166700,0.37950618,0.00171910,-0.0000117
 5,0.00064864,0.00263001,0.00346712,-0.00800555,-0.00129624,0.00009026,
 -0.00002357,-0.00008182,-0.00017023,0.00015635,-0.00004394,0.00011460,
 -0.00000676,0.00017006,-0.00026763,0.00030622,0.00024105,-0.00005145,-
 0.00040611,0.00004169,0.00004623,0.00011059,-0.00006193,-0.00008976,-0
 .00004047,-0.00033134,0.00018454,-0.00007857,-0.00240467,0.00196148,0.
 00816843,-0.00376232,-0.00228573,0.01246063,-0.00572806,-0.07854762,-0
 .06954857,0.00852701,0.08615095,0.05371996,0.00019171,0.00001828,-0.00
 035986,-0.00076155,0.00501872,-0.00342359,-0.00159819,-0.00046942,-0.0
 0030064,0.00033391,-0.00001809,0.00018558,-0.00000620,-0.00008191,-0.0
 0003483,-0.00001478,0.00003495,0.00001537,-0.00000452,-0.00003136,0.00
 007230,-0.00003850,-0.00001286,0.00001942,0.00002782,0.00007305,0.0000
 4910,0.00004979,-0.00004123,0.00009212,-0.01930730,-0.01431671,-0.0105
 8307,0.00046035,-0.00039957,0.00262719,-0.30025654,-0.10222289,-0.0943
 7675,0.00510695,0.00141986,0.00038139,0.31581705,0.00118752,0.00042699
 ,0.00056109,0.00322005,-0.00129696,-0.00350582,-0.00016872,0.00014101,
 0.00026359,0.00018481,0.00028537,0.00016579,-0.00010473,0.00011352,0.0
 0012078,0.00006511,-0.00014237,0.00012474,0.00024086,-0.00002224,-0.00
 040129,0.00006136,0.00005483,0.00012605,-0.00003170,-0.00007388,-0.000
 01548,-0.00007208,0.00010850,-0.00000873,0.02133428,0.01316358,0.00727
 715,-0.00080742,0.00089174,0.00230554,-0.10849694,-0.11879891,-0.04698
 377,-0.02764159,-0.00692532,-0.01059099,0.11102919,0.11207414,-0.00290
 575,-0.00057787,-0.00087354,-0.00275926,-0.00383307,0.01385466,0.00242
 044,0.00078623,0.00034474,0.00015201,0.00024552,0.00010825,0.00005653,
 -0.00019298,-0.00009077,-0.00002493,0.00012316,-0.00033980,-0.00049704
 ,0.00007345,0.00072599,-0.00010079,-0.00007770,-0.00028154,0.00001989,
 0.00012883,0.00000820,0.00002569,-0.00002814,0.00002863,-0.00195048,-0
 .00124547,0.00592476,0.00252651,0.00228317,-0.00810487,-0.09580645,-0.
 04573826,-0.08571549,-0.00679265,-0.00250825,0.00253879,0.10563629,0.0
 5056137,0.07187199\\0.00000179,-0.00000236,0.00001105,-0.00000329,-0.0
 0000278,-0.00000539,-0.00000127,0.00000086,0.00000190,-0.00000141,-0.0
 0000157,0.00000049,-0.00000531,-0.00001185,-0.00000826,-0.00000328,0.0
 0000914,-0.00001476,0.00000517,0.00000733,0.00000661,-0.00000341,-0.00
 000379,-0.00000312,0.00000218,0.00000450,0.00000296,0.00000122,-0.0000
 0308,0.00000519,0.00000948,0.00000283,0.00000207,-0.00000005,0.0000004
 1,-0.00000074,-0.00000380,-0.00000171,0.00000548,-0.00000008,0.0000019
 8,-0.00000255,0.00000206,0.00000009,-0.00000092\\\@
 Job cpu time:       0 days  0 hours 30 minutes 30.7 seconds.
 Elapsed time:       0 days  0 hours  7 minutes 39.3 seconds.
 File lengths (MBytes):  RWF=   5568 Int=      0 D2E=      0 Chk=     22 Scr=      1
 Normal termination of Gaussian 16 at Fri Jun 17 12:58:58 2022.
