 Entering Gaussian System, Link 0=/home/artemiy/opt/gaussian/g16/g16
 Input=1,1,1-Trifluoro-2,4-pentanedione_enol_1_G4.gjf
 Output=1,1,1-Trifluoro-2,4-pentanedione_enol_1_G4.log
 Initial command:
 /home/artemiy/opt/gaussian/g16/l1.exe "/home/artemiy/opt/gaussian/scr/Gau-21394.inp" -scrdir="/home/artemiy/opt/gaussian/scr/"
 Entering Link 1 = /home/artemiy/opt/gaussian/g16/l1.exe PID=     21397.
  
 Copyright (c) 1988,1990,1992,1993,1995,1998,2003,2009,2016,
            Gaussian, Inc.  All Rights Reserved.
  
 This is part of the Gaussian(R) 16 program.  It is based on
 the Gaussian(R) 09 system (copyright 2009, Gaussian, Inc.),
 the Gaussian(R) 03 system (copyright 2003, Gaussian, Inc.),
 the Gaussian(R) 98 system (copyright 1998, Gaussian, Inc.),
 the Gaussian(R) 94 system (copyright 1995, Gaussian, Inc.),
 the Gaussian 92(TM) system (copyright 1992, Gaussian, Inc.),
 the Gaussian 90(TM) system (copyright 1990, Gaussian, Inc.),
 the Gaussian 88(TM) system (copyright 1988, Gaussian, Inc.),
 the Gaussian 86(TM) system (copyright 1986, Carnegie Mellon
 University), and the Gaussian 82(TM) system (copyright 1983,
 Carnegie Mellon University). Gaussian is a federally registered
 trademark of Gaussian, Inc.
  
 This software contains proprietary and confidential information,
 including trade secrets, belonging to Gaussian, Inc.
  
 This software is provided under written license and may be
 used, copied, transmitted, or stored only in accord with that
 written license.
  
 The following legend is applicable only to US Government
 contracts under FAR:
  
                    RESTRICTED RIGHTS LEGEND
  
 Use, reproduction and disclosure by the US Government is
 subject to restrictions as set forth in subparagraphs (a)
 and (c) of the Commercial Computer Software - Restricted
 Rights clause in FAR 52.227-19.
  
 Gaussian, Inc.
 340 Quinnipiac St., Bldg. 40, Wallingford CT 06492
  
  
 ---------------------------------------------------------------
 Warning -- This program may not be used in any manner that
 competes with the business of Gaussian, Inc. or will provide
 assistance to any competitor of Gaussian, Inc.  The licensee
 of this program is prohibited from giving any competitor of
 Gaussian, Inc. access to this program.  By using this program,
 the user acknowledges that Gaussian, Inc. is engaged in the
 business of creating and licensing software in the field of
 computational chemistry and represents and warrants to the
 licensee that it is not a competitor of Gaussian, Inc. and that
 it will not use this program in any manner prohibited above.
 ---------------------------------------------------------------
  

 Cite this work as:
 Gaussian 16, Revision A.03,
 M. J. Frisch, G. W. Trucks, H. B. Schlegel, G. E. Scuseria, 
 M. A. Robb, J. R. Cheeseman, G. Scalmani, V. Barone, 
 G. A. Petersson, H. Nakatsuji, X. Li, M. Caricato, A. V. Marenich, 
 J. Bloino, B. G. Janesko, R. Gomperts, B. Mennucci, H. P. Hratchian, 
 J. V. Ortiz, A. F. Izmaylov, J. L. Sonnenberg, D. Williams-Young, 
 F. Ding, F. Lipparini, F. Egidi, J. Goings, B. Peng, A. Petrone, 
 T. Henderson, D. Ranasinghe, V. G. Zakrzewski, J. Gao, N. Rega, 
 G. Zheng, W. Liang, M. Hada, M. Ehara, K. Toyota, R. Fukuda, 
 J. Hasegawa, M. Ishida, T. Nakajima, Y. Honda, O. Kitao, H. Nakai, 
 T. Vreven, K. Throssell, J. A. Montgomery, Jr., J. E. Peralta, 
 F. Ogliaro, M. J. Bearpark, J. J. Heyd, E. N. Brothers, K. N. Kudin, 
 V. N. Staroverov, T. A. Keith, R. Kobayashi, J. Normand, 
 K. Raghavachari, A. P. Rendell, J. C. Burant, S. S. Iyengar, 
 J. Tomasi, M. Cossi, J. M. Millam, M. Klene, C. Adamo, R. Cammi, 
 J. W. Ochterski, R. L. Martin, K. Morokuma, O. Farkas, 
 J. B. Foresman, and D. J. Fox, Gaussian, Inc., Wallingford CT, 2016.
 
 ******************************************
 Gaussian 16:  ES64L-G16RevA.03 25-Dec-2016
                13-Nov-2021 
 ******************************************
 %mem=10GB
 %nprocshared=4
 Will use up to    4 processors via shared memory.
 -------------
 # g4 geom=gic
 -------------
 1/18=20,19=15,26=3,38=1,145=2/1,3;
 2/9=110,12=2,17=6,18=5,40=1/2;
 3/5=35,7=104,11=2,25=1,30=1,71=1,74=-5/1,2,3;
 4//1;
 5/5=2,38=5/2;
 6/7=2,8=2,9=2,10=2,28=1/1;
 7//1,2,3,16;
 1/18=20,19=15,26=3,145=2/3(2);
 2/9=110/2;
 99//99;
 2/9=110/2;
 3/5=35,7=104,11=2,25=1,30=1,71=1,74=-5/1,2,3;
 4/5=5,16=3,69=1/1;
 5/5=2,38=5/2;
 7//1,2,3,16;
 1/18=20,19=15,26=3,145=2/3(-5);
 2/9=110/2;
 6/7=2,8=2,9=2,10=2,19=2,28=1/1;
 99/9=1/99;
 -------------------
 CAS 367-57-7
 -------------------
 Symbolic Z-matrix:
 Charge =  0 Multiplicity = 1
 C                    -3.33703  -1.1829    0.00606 
 C                    -2.22954  -0.18725  -0.0083 
 C                    -0.90819  -0.56091  -0.00725 
 C                     0.1073    0.42943   0.00068 
 O                    -0.06466   1.64407   0.00626 
 C                     1.54642  -0.13765   0.00029 
 F                     1.76222  -0.90891  -1.08065 
 F                     2.48066   0.80772   0.0081 
 F                     1.75783  -0.92221   1.07257 
 H                    -0.63295  -1.60027  -0.01062 
 O                    -2.60454   1.06772  -0.00456 
 H                    -1.8012    1.65489   0.00358 
 H                    -3.59414  -1.41379   1.03987 
 H                    -4.21684  -0.7589   -0.47072 
 H                    -3.04259  -2.10325  -0.48788 
 
 Initializing the GIC definitions file.

 GradGradGradGradGradGradGradGradGradGradGradGradGradGradGradGradGradGrad
 Berny optimization.
 Initialization pass.
                           ----------------------------
                           !    Initial Parameters    !
                           ! (Angstroms and Degrees)  !
 --------------------------                            --------------------------
 ! Name  Definition              Value          Derivative Info.                !
 --------------------------------------------------------------------------------
 ! R1    R(1,2)                  1.4893         estimate D2E/DX2                !
 ! R2    R(1,13)                 1.09           estimate D2E/DX2                !
 ! R3    R(1,14)                 1.0868         estimate D2E/DX2                !
 ! R4    R(1,15)                 1.0852         estimate D2E/DX2                !
 ! R5    R(2,3)                  1.3732         estimate D2E/DX2                !
 ! R6    R(2,11)                 1.3098         estimate D2E/DX2                !
 ! R7    R(3,4)                  1.4185         estimate D2E/DX2                !
 ! R8    R(3,10)                 1.0752         estimate D2E/DX2                !
 ! R9    R(4,5)                  1.2268         estimate D2E/DX2                !
 ! R10   R(4,6)                  1.5468         estimate D2E/DX2                !
 ! R11   R(6,7)                  1.3453         estimate D2E/DX2                !
 ! R12   R(6,8)                  1.3291         estimate D2E/DX2                !
 ! R13   R(6,9)                  1.3454         estimate D2E/DX2                !
 ! R14   R(11,12)                0.9951         estimate D2E/DX2                !
 ! A1    A(2,1,13)             109.0354         estimate D2E/DX2                !
 ! A2    A(2,1,14)             109.6907         estimate D2E/DX2                !
 ! A3    A(2,1,15)             111.1507         estimate D2E/DX2                !
 ! A4    A(13,1,14)            107.9236         estimate D2E/DX2                !
 ! A5    A(13,1,15)            108.4231         estimate D2E/DX2                !
 ! A6    A(14,1,15)            110.5379         estimate D2E/DX2                !
 ! A7    A(1,2,3)              122.2515         estimate D2E/DX2                !
 ! A8    A(1,2,11)             115.3165         estimate D2E/DX2                !
 ! A9    A(3,2,11)             122.4264         estimate D2E/DX2                !
 ! A10   A(2,3,4)              119.9281         estimate D2E/DX2                !
 ! A11   A(2,3,10)             120.6221         estimate D2E/DX2                !
 ! A12   A(4,3,10)             119.4498         estimate D2E/DX2                !
 ! A13   A(3,4,5)              126.2245         estimate D2E/DX2                !
 ! A14   A(3,4,6)              114.2113         estimate D2E/DX2                !
 ! A15   A(5,4,6)              119.5643         estimate D2E/DX2                !
 ! A16   A(4,6,7)              111.077          estimate D2E/DX2                !
 ! A17   A(4,6,8)              113.1537         estimate D2E/DX2                !
 ! A18   A(4,6,9)              111.0875         estimate D2E/DX2                !
 ! A19   A(7,6,8)              107.4417         estimate D2E/DX2                !
 ! A20   A(7,6,9)              106.3115         estimate D2E/DX2                !
 ! A21   A(8,6,9)              107.4363         estimate D2E/DX2                !
 ! A22   A(2,11,12)            109.5275         estimate D2E/DX2                !
 ! D1    D(13,1,2,3)            89.6108         estimate D2E/DX2                !
 ! D2    D(13,1,2,11)          -89.5466         estimate D2E/DX2                !
 ! D3    D(14,1,2,3)          -152.4041         estimate D2E/DX2                !
 ! D4    D(14,1,2,11)           28.4385         estimate D2E/DX2                !
 ! D5    D(15,1,2,3)           -29.8576         estimate D2E/DX2                !
 ! D6    D(15,1,2,11)          150.985          estimate D2E/DX2                !
 ! D7    D(1,2,3,4)           -178.9749         estimate D2E/DX2                !
 ! D8    D(1,2,3,10)             0.9148         estimate D2E/DX2                !
 ! D9    D(11,2,3,4)             0.1228         estimate D2E/DX2                !
 ! D10   D(11,2,3,10)         -179.9876         estimate D2E/DX2                !
 ! D11   D(1,2,11,12)          178.8724         estimate D2E/DX2                !
 ! D12   D(3,2,11,12)           -0.2834         estimate D2E/DX2                !
 ! D13   D(2,3,4,5)             -0.0453         estimate D2E/DX2                !
 ! D14   D(2,3,4,6)           -179.9743         estimate D2E/DX2                !
 ! D15   D(10,3,4,5)          -179.9362         estimate D2E/DX2                !
 ! D16   D(10,3,4,6)             0.1347         estimate D2E/DX2                !
 ! D17   D(3,4,6,7)             59.0715         estimate D2E/DX2                !
 ! D18   D(3,4,6,8)           -179.9855         estimate D2E/DX2                !
 ! D19   D(3,4,6,9)            -59.042          estimate D2E/DX2                !
 ! D20   D(5,4,6,7)           -120.8627         estimate D2E/DX2                !
 ! D21   D(5,4,6,8)              0.0803         estimate D2E/DX2                !
 ! D22   D(5,4,6,9)            121.0238         estimate D2E/DX2                !
 --------------------------------------------------------------------------------
 Trust Radius=3.00D-01 FncErr=1.00D-07 GrdErr=1.00D-06 EigMax=2.50D+02 EigMin=1.00D-04
 Number of steps in this run=     68 maximum allowed number of steps=    100.
 GradGradGradGradGradGradGradGradGradGradGradGradGradGradGradGradGradGrad

                          Input orientation:                          
 ---------------------------------------------------------------------
 Center     Atomic      Atomic             Coordinates (Angstroms)
 Number     Number       Type             X           Y           Z
 ---------------------------------------------------------------------
      1          6           0       -3.337026   -1.182901    0.006056
      2          6           0       -2.229545   -0.187251   -0.008300
      3          6           0       -0.908193   -0.560908   -0.007254
      4          6           0        0.107296    0.429431    0.000677
      5          8           0       -0.064663    1.644072    0.006264
      6          6           0        1.546417   -0.137645    0.000291
      7          9           0        1.762225   -0.908915   -1.080654
      8          9           0        2.480660    0.807725    0.008099
      9          9           0        1.757831   -0.922211    1.072572
     10          1           0       -0.632953   -1.600266   -0.010619
     11          8           0       -2.604542    1.067715   -0.004556
     12          1           0       -1.801201    1.654887    0.003583
     13          1           0       -3.594142   -1.413789    1.039868
     14          1           0       -4.216839   -0.758900   -0.470722
     15          1           0       -3.042588   -2.103254   -0.487885
 ---------------------------------------------------------------------
                    Distance matrix (angstroms):
                    1          2          3          4          5
     1  C    0.000000
     2  C    1.489308   0.000000
     3  C    2.507246   1.373169   0.000000
     4  C    3.803024   2.416858   1.418468   0.000000
     5  O    4.324365   2.835607   2.360860   1.226766   0.000000
     6  C    4.994057   3.776298   2.490847   1.546818   2.402110
     7  F    5.220954   4.195827   2.899038   2.387307   3.322146
     8  F    6.148826   4.814175   3.654821   2.403335   2.679207
     9  F    5.211812   4.196144   2.899008   2.387501   3.323298
    10  H    2.736143   2.132070   1.075190   2.160502   3.293778
    11  O    2.366837   1.309800   2.351600   2.785946   2.604474
    12  H    3.226732   1.891320   2.389001   2.268063   1.736573
    13  H    1.090040   2.113097   3.006359   4.263569   4.782894
    14  H    1.086814   2.118952   3.346811   4.509156   4.821033
    15  H    1.085228   2.135909   2.676842   4.071235   4.811930
                    6          7          8          9         10
     6  C    0.000000
     7  F    1.345314   0.000000
     8  F    1.329133   2.156011   0.000000
     9  F    1.345372   2.153271   2.155983   0.000000
    10  H    2.624697   2.712899   3.936161   2.710888   0.000000
    11  O    4.322427   4.912607   5.091860   4.914297   3.317427
    12  H    3.797332   4.521797   4.364864   4.522265   3.458472
    13  H    5.397649   5.782921   6.550030   5.374601   3.147528
    14  H    5.815749   6.011965   6.894932   6.172934   3.709963
    15  H    5.016064   4.986386   6.263072   5.184006   2.507413
                   11         12         13         14         15
    11  O    0.000000
    12  H    0.995085   0.000000
    13  H    2.868448   3.702067   0.000000
    14  H    2.480592   3.447701   1.760260   0.000000
    15  H    3.237366   3.988258   1.764540   1.785062   0.000000
 Stoichiometry    C5H5F3O2
 Framework group  C1[X(C5H5F3O2)]
 Deg. of freedom    39
 Full point group                 C1      NOp   1
 Largest Abelian subgroup         C1      NOp   1
 Largest concise Abelian subgroup C1      NOp   1
                         Standard orientation:                         
 ---------------------------------------------------------------------
 Center     Atomic      Atomic             Coordinates (Angstroms)
 Number     Number       Type             X           Y           Z
 ---------------------------------------------------------------------
      1          6           0       -3.244612   -1.075693    0.003636
      2          6           0       -2.110698   -0.110240   -0.009737
      3          6           0       -0.799895   -0.519368   -0.008337
      4          6           0        0.241907    0.443244    0.000536
      5          8           0        0.102738    1.662074    0.006689
      6          6           0        1.665225   -0.162406    0.000451
      7          9           0        1.860636   -0.938656   -1.080808
      8          9           0        2.624600    0.757442    0.009143
      9          9           0        1.854961   -0.952934    1.072408
     10          1           0       -0.552761   -1.565764   -0.012133
     11          8           0       -2.451744    1.154373   -0.005490
     12          1           0       -1.632876    1.719680    0.003291
     13          1           0       -3.508301   -1.300100    1.037221
     14          1           0       -4.112476   -0.627894   -0.473285
     15          1           0       -2.974869   -2.003392   -0.490665
 ---------------------------------------------------------------------
 Rotational constants (GHZ):           2.7005783           0.7602676           0.6643813
 Standard basis: GTBas3 (6D, 7F)
 There are   335 symmetry adapted cartesian basis functions of A   symmetry.
 There are   305 symmetry adapted basis functions of A   symmetry.
   305 basis functions,   475 primitive gaussians,   335 cartesian basis functions
    39 alpha electrons       39 beta electrons
       nuclear repulsion energy       566.0928366616 Hartrees.
 NAtoms=   15 NActive=   15 NUniq=   15 SFac= 1.00D+00 NAtFMM=   60 NAOKFM=F Big=F
 Integral buffers will be    131072 words long.
 Raffenetti 2 integral format.
 Two-electron integral symmetry is turned on.
 One-electron integrals computed using PRISM.
 NBasis=   305 RedAO= T EigKep=  3.81D-04  NBF=   305
 NBsUse=   305 1.00D-06 EigRej= -1.00D+00 NBFU=   305
 ExpMin= 1.61D-01 ExpMax= 7.00D+03 ExpMxC= 1.05D+03 IAcc=3 IRadAn=         5 AccDes= 0.00D+00
 Harris functional with IExCor=  402 and IRadAn=       5 diagonalized for initial guess.
 HarFok:  IExCor=  402 AccDes= 0.00D+00 IRadAn=         5 IDoV= 1 UseB2=F ITyADJ=14
 ICtDFT=  3500011 ScaDFX=  1.000000  1.000000  1.000000  1.000000
 FoFCou: FMM=F IPFlag=           0 FMFlag=      100000 FMFlg1=           0
         NFxFlg=           0 DoJE=T BraDBF=F KetDBF=T FulRan=T
         wScrn=  0.000000 ICntrl=       500 IOpCl=  0 I1Cent=   200000004 NGrid=           0
         NMat0=    1 NMatS0=      1 NMatT0=    0 NMatD0=    1 NMtDS0=    0 NMtDT0=    0
 Petite list used in FoFCou.
 Keep R1 ints in memory in canonical form, NReq=1107802389.
 Requested convergence on RMS density matrix=1.00D-08 within 128 cycles.
 Requested convergence on MAX density matrix=1.00D-06.
 Requested convergence on             energy=1.00D-06.
 No special actions if energy rises.
 Integral accuracy reduced to 1.0D-05 until final iterations.
 Initial convergence to 1.0D-05 achieved.  Increase integral accuracy.
 SCF Done:  E(RB3LYP) =  -643.552770857     A.U. after   14 cycles
            NFock= 14  Conv=0.27D-08     -V/T= 2.0061

 **********************************************************************

            Population analysis using the SCF density.

 **********************************************************************

 Orbital symmetries:
       Occupied  (A) (A) (A) (A) (A) (A) (A) (A) (A) (A) (A) (A)
                 (A) (A) (A) (A) (A) (A) (A) (A) (A) (A) (A) (A)
                 (A) (A) (A) (A) (A) (A) (A) (A) (A) (A) (A) (A)
                 (A) (A) (A)
       Virtual   (A) (A) (A) (A) (A) (A) (A) (A) (A) (A) (A) (A)
                 (A) (A) (A) (A) (A) (A) (A) (A) (A) (A) (A) (A)
                 (A) (A) (A) (A) (A) (A) (A) (A) (A) (A) (A) (A)
                 (A) (A) (A) (A) (A) (A) (A) (A) (A) (A) (A) (A)
                 (A) (A) (A) (A) (A) (A) (A) (A) (A) (A) (A) (A)
                 (A) (A) (A) (A) (A) (A) (A) (A) (A) (A) (A) (A)
                 (A) (A) (A) (A) (A) (A) (A) (A) (A) (A) (A) (A)
                 (A) (A) (A) (A) (A) (A) (A) (A) (A) (A) (A) (A)
                 (A) (A) (A) (A) (A) (A) (A) (A) (A) (A) (A) (A)
                 (A) (A) (A) (A) (A) (A) (A) (A) (A) (A) (A) (A)
                 (A) (A) (A) (A) (A) (A) (A) (A) (A) (A) (A) (A)
                 (A) (A) (A) (A) (A) (A) (A) (A) (A) (A) (A) (A)
                 (A) (A) (A) (A) (A) (A) (A) (A) (A) (A) (A) (A)
                 (A) (A) (A) (A) (A) (A) (A) (A) (A) (A) (A) (A)
                 (A) (A) (A) (A) (A) (A) (A) (A) (A) (A) (A) (A)
                 (A) (A) (A) (A) (A) (A) (A) (A) (A) (A) (A) (A)
                 (A) (A) (A) (A) (A) (A) (A) (A) (A) (A) (A) (A)
                 (A) (A) (A) (A) (A) (A) (A) (A) (A) (A) (A) (A)
                 (A) (A) (A) (A) (A) (A) (A) (A) (A) (A) (A) (A)
                 (A) (A) (A) (A) (A) (A) (A) (A) (A) (A) (A) (A)
                 (A) (A) (A) (A) (A) (A) (A) (A) (A) (A) (A) (A)
                 (A) (A) (A) (A) (A) (A) (A) (A) (A) (A) (A) (A)
                 (A) (A)
 The electronic state is 1-A.
 Alpha  occ. eigenvalues --  -24.72255 -24.72246 -24.72131 -19.19848 -19.15386
 Alpha  occ. eigenvalues --  -10.42023 -10.29439 -10.28933 -10.21044 -10.19201
 Alpha  occ. eigenvalues --   -1.31061  -1.22080  -1.21855  -1.10432  -1.05778
 Alpha  occ. eigenvalues --   -0.81884  -0.76686  -0.71807  -0.64001  -0.62319
 Alpha  occ. eigenvalues --   -0.58618  -0.58593  -0.54842  -0.50899  -0.47699
 Alpha  occ. eigenvalues --   -0.47317  -0.46233  -0.46107  -0.43937  -0.43120
 Alpha  occ. eigenvalues --   -0.42408  -0.41809  -0.40858  -0.40518  -0.40126
 Alpha  occ. eigenvalues --   -0.38747  -0.38333  -0.27867  -0.25875
 Alpha virt. eigenvalues --   -0.06941   0.04847   0.08762   0.11525   0.13067
 Alpha virt. eigenvalues --    0.14315   0.16184   0.16469   0.21130   0.21530
 Alpha virt. eigenvalues --    0.22899   0.23183   0.26789   0.30790   0.33534
 Alpha virt. eigenvalues --    0.38376   0.40232   0.41220   0.43640   0.45864
 Alpha virt. eigenvalues --    0.47144   0.47590   0.48917   0.50226   0.52482
 Alpha virt. eigenvalues --    0.53115   0.55177   0.56943   0.59223   0.61155
 Alpha virt. eigenvalues --    0.65630   0.65787   0.68086   0.69472   0.69815
 Alpha virt. eigenvalues --    0.71836   0.74241   0.74310   0.75900   0.78570
 Alpha virt. eigenvalues --    0.79576   0.82069   0.82712   0.85481   0.87192
 Alpha virt. eigenvalues --    0.87527   0.89207   0.90789   0.92221   0.92415
 Alpha virt. eigenvalues --    0.93466   0.94205   0.96252   0.97574   0.98434
 Alpha virt. eigenvalues --    1.00244   1.02037   1.02478   1.04027   1.05621
 Alpha virt. eigenvalues --    1.06646   1.06852   1.11414   1.12480   1.14866
 Alpha virt. eigenvalues --    1.17364   1.18719   1.20880   1.21492   1.22423
 Alpha virt. eigenvalues --    1.29805   1.30034   1.32117   1.35163   1.36717
 Alpha virt. eigenvalues --    1.37354   1.37676   1.40265   1.42856   1.43109
 Alpha virt. eigenvalues --    1.47519   1.48581   1.50296   1.52376   1.53718
 Alpha virt. eigenvalues --    1.55550   1.56377   1.62972   1.64271   1.65330
 Alpha virt. eigenvalues --    1.67797   1.69685   1.73843   1.76026   1.78185
 Alpha virt. eigenvalues --    1.79540   1.83056   1.85186   1.86350   1.90914
 Alpha virt. eigenvalues --    1.92307   1.94568   2.00227   2.02865   2.05527
 Alpha virt. eigenvalues --    2.10033   2.17483   2.20665   2.21538   2.25462
 Alpha virt. eigenvalues --    2.27181   2.30533   2.36458   2.39752   2.40431
 Alpha virt. eigenvalues --    2.44787   2.46308   2.50769   2.64019   2.70490
 Alpha virt. eigenvalues --    2.73425   2.80338   2.82812   2.85387   2.86971
 Alpha virt. eigenvalues --    2.90012   2.90849   2.95532   2.96391   3.02007
 Alpha virt. eigenvalues --    3.03996   3.07977   3.09195   3.12480   3.14588
 Alpha virt. eigenvalues --    3.16500   3.17661   3.18343   3.20671   3.22880
 Alpha virt. eigenvalues --    3.27540   3.30650   3.33447   3.36663   3.41274
 Alpha virt. eigenvalues --    3.43551   3.46977   3.50161   3.56945   3.59972
 Alpha virt. eigenvalues --    3.62895   3.67001   3.69712   3.74906   3.80962
 Alpha virt. eigenvalues --    3.81533   3.83147   3.85788   3.90455   3.94420
 Alpha virt. eigenvalues --    3.97561   4.01081   4.05501   4.06549   4.09070
 Alpha virt. eigenvalues --    4.11222   4.13618   4.15541   4.15874   4.17849
 Alpha virt. eigenvalues --    4.19068   4.21330   4.22500   4.23850   4.24548
 Alpha virt. eigenvalues --    4.25826   4.28470   4.30724   4.33180   4.34096
 Alpha virt. eigenvalues --    4.35617   4.38730   4.40075   4.40644   4.41888
 Alpha virt. eigenvalues --    4.46731   4.47314   4.51674   4.53282   4.53881
 Alpha virt. eigenvalues --    4.55582   4.56468   4.58283   4.58974   4.64834
 Alpha virt. eigenvalues --    4.65822   4.68654   4.70245   4.71271   4.73281
 Alpha virt. eigenvalues --    4.76097   4.78574   4.81922   4.83642   4.87435
 Alpha virt. eigenvalues --    4.88839   4.89935   4.92913   5.05109   5.06664
 Alpha virt. eigenvalues --    5.09804   5.12125   5.15829   5.17278   5.24536
 Alpha virt. eigenvalues --    5.29130   5.40346   5.44195   5.49534   5.50688
 Alpha virt. eigenvalues --    5.58080   5.61630   5.64973   5.67007   5.83062
 Alpha virt. eigenvalues --    5.88490   6.01031   6.05478   6.25252   6.31767
 Alpha virt. eigenvalues --    6.43184   6.51831   6.60887   6.61251   6.61629
 Alpha virt. eigenvalues --    6.61712   6.61954   6.63298   6.63827   6.67253
 Alpha virt. eigenvalues --    6.71205   6.74357   6.78448   6.81177   6.91108
 Alpha virt. eigenvalues --    6.95582   7.12147   7.17210   7.22033   7.26592
 Alpha virt. eigenvalues --    7.40386   7.41912   7.43093   7.48688   7.51884
 Alpha virt. eigenvalues --    8.03172   9.57916   9.64409   9.72657  10.33643
 Alpha virt. eigenvalues --   11.06744  11.49023  11.95827  12.35156  13.33024
 Alpha virt. eigenvalues --   13.35976
          Condensed to atoms (all electrons):
               1          2          3          4          5          6
     1  C    5.079272   0.369543  -0.049151  -0.000385   0.000124  -0.000112
     2  C    0.369543   4.379666   0.485057   0.009987  -0.008340  -0.001615
     3  C   -0.049151   0.485057   5.437771   0.221183  -0.069330  -0.036424
     4  C   -0.000385   0.009987   0.221183   4.770672   0.668593   0.264452
     5  O    0.000124  -0.008340  -0.069330   0.668593   7.794277  -0.027601
     6  C   -0.000112  -0.001615  -0.036424   0.264452  -0.027601   4.284753
     7  F   -0.000000   0.000345   0.008093  -0.046764  -0.000054   0.411739
     8  F    0.000000  -0.000063   0.003027  -0.029822  -0.001408   0.467747
     9  F   -0.000001   0.000406   0.008246  -0.046659  -0.000055   0.411066
    10  H   -0.003877  -0.027249   0.359121  -0.030224   0.002325   0.005910
    11  O   -0.034575   0.498172  -0.040670  -0.010366  -0.028892   0.000078
    12  H    0.005943  -0.050418  -0.010200  -0.005919   0.071217   0.000628
    13  H    0.366856  -0.016426  -0.002021   0.000016   0.000008   0.000002
    14  H    0.362542  -0.015243   0.002645  -0.000032   0.000008   0.000001
    15  H    0.376071  -0.018309  -0.001896   0.000479   0.000004   0.000000
               7          8          9         10         11         12
     1  C   -0.000000   0.000000  -0.000001  -0.003877  -0.034575   0.005943
     2  C    0.000345  -0.000063   0.000406  -0.027249   0.498172  -0.050418
     3  C    0.008093   0.003027   0.008246   0.359121  -0.040670  -0.010200
     4  C   -0.046764  -0.029822  -0.046659  -0.030224  -0.010366  -0.005919
     5  O   -0.000054  -0.001408  -0.000055   0.002325  -0.028892   0.071217
     6  C    0.411739   0.467747   0.411066   0.005910   0.000078   0.000628
     7  F    8.791991  -0.041201  -0.046830   0.001880  -0.000000  -0.000014
     8  F   -0.041201   8.695826  -0.041181   0.000148   0.000000   0.000002
     9  F   -0.046830  -0.041181   8.792573   0.001824  -0.000000  -0.000013
    10  H    0.001880   0.000148   0.001824   0.569124   0.002256  -0.000154
    11  O   -0.000000   0.000000  -0.000000   0.002256   7.689849   0.288845
    12  H   -0.000014   0.000002  -0.000013  -0.000154   0.288845   0.365303
    13  H   -0.000000  -0.000000  -0.000000   0.000122  -0.000305  -0.000142
    14  H    0.000000  -0.000000  -0.000000  -0.000046   0.001653   0.000017
    15  H   -0.000001  -0.000000   0.000000   0.001523   0.001220  -0.000194
              13         14         15
     1  C    0.366856   0.362542   0.376071
     2  C   -0.016426  -0.015243  -0.018309
     3  C   -0.002021   0.002645  -0.001896
     4  C    0.000016  -0.000032   0.000479
     5  O    0.000008   0.000008   0.000004
     6  C    0.000002   0.000001   0.000000
     7  F   -0.000000   0.000000  -0.000001
     8  F   -0.000000  -0.000000  -0.000000
     9  F   -0.000000  -0.000000   0.000000
    10  H    0.000122  -0.000046   0.001523
    11  O   -0.000305   0.001653   0.001220
    12  H   -0.000142   0.000017  -0.000194
    13  H    0.541225  -0.025514  -0.026484
    14  H   -0.025514   0.544981  -0.025101
    15  H   -0.026484  -0.025101   0.543035
 Mulliken charges:
               1
     1  C   -0.472250
     2  C    0.394487
     3  C   -0.315452
     4  C    0.234792
     5  O   -0.400876
     6  C    0.219375
     7  F   -0.079184
     8  F   -0.053073
     9  F   -0.079377
    10  H    0.117316
    11  O   -0.367262
    12  H    0.335098
    13  H    0.162663
    14  H    0.154089
    15  H    0.149654
 Sum of Mulliken charges =  -0.00000
 Mulliken charges with hydrogens summed into heavy atoms:
               1
     1  C   -0.005843
     2  C    0.394487
     3  C   -0.198136
     4  C    0.234792
     5  O   -0.400876
     6  C    0.219375
     7  F   -0.079184
     8  F   -0.053073
     9  F   -0.079377
    11  O   -0.032164
 Electronic spatial extent (au):  <R**2>=           1627.7622
 Charge=             -0.0000 electrons
 Dipole moment (field-independent basis, Debye):
    X=             -3.0535    Y=             -2.0032    Z=              0.0619  Tot=              3.6525
 Quadrupole moment (field-independent basis, Debye-Ang):
   XX=            -52.2940   YY=            -55.6314   ZZ=            -54.6512
   XY=              3.3314   XZ=             -0.2137   YZ=             -0.0501
 Traceless Quadrupole moment (field-independent basis, Debye-Ang):
   XX=              1.8982   YY=             -1.4392   ZZ=             -0.4590
   XY=              3.3314   XZ=             -0.2137   YZ=             -0.0501
 Octapole moment (field-independent basis, Debye-Ang**2):
  XXX=             14.0975  YYY=             -3.9436  ZZZ=              0.8416  XYY=              4.9135
  XXY=            -11.4683  XXZ=              0.4244  XZZ=              9.3638  YZZ=              2.5513
  YYZ=             -0.3604  XYZ=              0.4072
 Hexadecapole moment (field-independent basis, Debye-Ang**3):
 XXXX=          -1317.6971 YYYY=           -332.2938 ZZZZ=           -114.0297 XXXY=             17.2874
 XXXZ=              0.6278 YYYX=            -24.4290 YYYZ=              1.6205 ZZZX=             -2.6890
 ZZZY=             -1.0344 XXYY=           -283.7853 XXZZ=           -242.6815 YYZZ=            -75.0598
 XXYZ=             -2.3183 YYXZ=              0.2598 ZZXY=             -2.9104
 N-N= 5.660928366616D+02 E-N=-2.650403775637D+03  KE= 6.396753149579D+02
 Calling FoFJK, ICntrl=      2127 FMM=F ISym2X=0 I1Cent= 0 IOpClX= 0 NMat=1 NMatS=1 NMatT=0.
 ***** Axes restored to original set *****
 -------------------------------------------------------------------
 Center     Atomic                   Forces (Hartrees/Bohr)
 Number     Number              X              Y              Z
 -------------------------------------------------------------------
      1        6          -0.001943401    0.004466880    0.000653117
      2        6           0.010987610   -0.007309009   -0.001072084
      3        6          -0.005423531    0.001804313   -0.000312878
      4        6           0.006182104   -0.007803224    0.000355778
      5        8          -0.001357227    0.009632837   -0.000037330
      6        6           0.016605184   -0.002233701   -0.000064728
      7        9          -0.004875252    0.001385101   -0.001044323
      8        9          -0.005418204    0.002786793    0.000011722
      9        9          -0.004951525    0.001383639    0.001051744
     10        1          -0.000571121   -0.003789300   -0.000323824
     11        8          -0.006629782    0.010498397    0.000351119
     12        1           0.002247001   -0.006213414    0.000138609
     13        1          -0.002170278   -0.001472730    0.003645710
     14        1          -0.003461396    0.000033334   -0.001937334
     15        1           0.000779819   -0.003169914   -0.001415298
 -------------------------------------------------------------------
 Cartesian Forces:  Max     0.016605184 RMS     0.004852448

 GradGradGradGradGradGradGradGradGradGradGradGradGradGradGradGradGradGrad
 Berny optimization.
 FormGI is forming the generalized inverse of G from B-inverse, IUseBI=4.
 Internal  Forces:  Max     0.011926328 RMS     0.004052070
 Search for a local minimum.
 Step number   1 out of a maximum of   68
 All quantities printed in internal units (Hartrees-Bohrs-Radians)
 Mixed Optimization -- RFO/linear search
 Second derivative matrix not updated -- first step.
 ITU=  0
     Eigenvalues ---    0.00230   0.00907   0.00935   0.01783   0.01844
     Eigenvalues ---    0.02148   0.02444   0.02885   0.07348   0.07681
     Eigenvalues ---    0.10235   0.10757   0.16000   0.16000   0.16000
     Eigenvalues ---    0.16000   0.16000   0.22000   0.24998   0.24999
     Eigenvalues ---    0.25000   0.25000   0.25000   0.25000   0.25000
     Eigenvalues ---    0.27923   0.33525   0.34808   0.35183   0.35370
     Eigenvalues ---    0.36582   0.42692   0.48563   0.50372   0.56018
     Eigenvalues ---    0.56030   0.59711   0.64543   0.92447
 RFO step:  Lambda=-3.64739936D-03 EMin= 2.30000000D-03
 Linear search not attempted -- first point.
 Iteration  1 RMS(Cart)=  0.06842992 RMS(Int)=  0.00193872
 Iteration  2 RMS(Cart)=  0.00236903 RMS(Int)=  0.00010164
 Iteration  3 RMS(Cart)=  0.00000204 RMS(Int)=  0.00010163
 Iteration  4 RMS(Cart)=  0.00000000 RMS(Int)=  0.00010163
 Variable       Old X    -DE/DX   Delta X   Delta X   Delta X     New X
                                 (Linear)    (Quad)   (Total)
    R1        2.81438   0.00516   0.00000   0.01522   0.01522   2.82960
    R2        2.05988   0.00428   0.00000   0.01217   0.01217   2.07205
    R3        2.05378   0.00367   0.00000   0.01031   0.01031   2.06409
    R4        2.05078   0.00354   0.00000   0.00992   0.00992   2.06070
    R5        2.59491  -0.00068   0.00000  -0.00134  -0.00134   2.59358
    R6        2.47516   0.00536   0.00000   0.00826   0.00826   2.48342
    R7        2.68052   0.00802   0.00000   0.01864   0.01864   2.69915
    R8        2.03182   0.00352   0.00000   0.00952   0.00952   2.04134
    R9        2.31825   0.00973   0.00000   0.01048   0.01048   2.32873
   R10        2.92306   0.00005   0.00000   0.00017   0.00017   2.92323
   R11        2.54228  -0.00074   0.00000  -0.00131  -0.00131   2.54097
   R12        2.51170  -0.00183   0.00000  -0.00304  -0.00304   2.50866
   R13        2.54238  -0.00075   0.00000  -0.00132  -0.00132   2.54106
   R14        1.88044  -0.00185   0.00000  -0.00378  -0.00378   1.87665
    A1        1.90303   0.00171   0.00000   0.01140   0.01136   1.91439
    A2        1.91446   0.00169   0.00000   0.01044   0.01040   1.92487
    A3        1.93995  -0.00040   0.00000  -0.00354  -0.00353   1.93642
    A4        1.88362  -0.00120   0.00000  -0.00504  -0.00513   1.87849
    A5        1.89234  -0.00077   0.00000  -0.00507  -0.00506   1.88728
    A6        1.92925  -0.00105   0.00000  -0.00817  -0.00816   1.92109
    A7        2.13369   0.00848   0.00000   0.03339   0.03337   2.16706
    A8        2.01265  -0.00197   0.00000  -0.00778  -0.00779   2.00486
    A9        2.13674  -0.00651   0.00000  -0.02572  -0.02573   2.11101
   A10        2.09314  -0.00567   0.00000  -0.02533  -0.02533   2.06781
   A11        2.10525   0.00129   0.00000   0.00321   0.00321   2.10846
   A12        2.08479   0.00438   0.00000   0.02212   0.02212   2.10691
   A13        2.20303  -0.00391   0.00000  -0.01541  -0.01541   2.18762
   A14        1.99336   0.00783   0.00000   0.03087   0.03087   2.02423
   A15        2.08679  -0.00392   0.00000  -0.01547  -0.01547   2.07132
   A16        1.93866  -0.00581   0.00000  -0.02248  -0.02276   1.91590
   A17        1.97490  -0.00702   0.00000  -0.02843  -0.02877   1.94613
   A18        1.93884  -0.00597   0.00000  -0.02321  -0.02350   1.91534
   A19        1.87521   0.00694   0.00000   0.02675   0.02643   1.90164
   A20        1.85549   0.00643   0.00000   0.02681   0.02659   1.88207
   A21        1.87512   0.00698   0.00000   0.02674   0.02641   1.90153
   A22        1.91162  -0.01193   0.00000  -0.07288  -0.07288   1.83874
    D1        1.56400   0.00005   0.00000   0.02227   0.02219   1.58619
    D2       -1.56288   0.00028   0.00000   0.03132   0.03132  -1.53156
    D3       -2.65995   0.00058   0.00000   0.02895   0.02894  -2.63101
    D4        0.49634   0.00081   0.00000   0.03799   0.03807   0.53442
    D5       -0.52111   0.00015   0.00000   0.02342   0.02337  -0.49774
    D6        2.63519   0.00038   0.00000   0.03246   0.03251   2.66769
    D7       -3.12370   0.00033   0.00000   0.01300   0.01299  -3.11071
    D8        0.01597   0.00034   0.00000   0.01323   0.01322   0.02919
    D9        0.00214   0.00013   0.00000   0.00351   0.00352   0.00567
   D10       -3.14138   0.00014   0.00000   0.00375   0.00375  -3.13762
   D11        3.12191  -0.00018   0.00000  -0.00847  -0.00835   3.11356
   D12       -0.00495  -0.00009   0.00000   0.00004  -0.00008  -0.00503
   D13       -0.00079  -0.00004   0.00000  -0.00245  -0.00244  -0.00323
   D14       -3.14114  -0.00001   0.00000   0.00026   0.00026  -3.14089
   D15       -3.14048  -0.00005   0.00000  -0.00265  -0.00265   3.14005
   D16        0.00235  -0.00001   0.00000   0.00005   0.00005   0.00240
   D17        1.03099   0.00021   0.00000   0.00163   0.00159   1.03258
   D18       -3.14134   0.00001   0.00000  -0.00016  -0.00017  -3.14151
   D19       -1.03048  -0.00025   0.00000  -0.00250  -0.00246  -1.03294
   D20       -2.10945   0.00024   0.00000   0.00414   0.00411  -2.10535
   D21        0.00140   0.00004   0.00000   0.00235   0.00234   0.00375
   D22        2.11226  -0.00022   0.00000   0.00001   0.00005   2.11232
         Item               Value     Threshold  Converged?
 Maximum Force            0.011926     0.000450     NO 
 RMS     Force            0.004052     0.000300     NO 
 Maximum Displacement     0.228881     0.001800     NO 
 RMS     Displacement     0.068638     0.001200     NO 
 Predicted change in Energy=-1.862274D-03
 GradGradGradGradGradGradGradGradGradGradGradGradGradGradGradGradGradGrad

                          Input orientation:                          
 ---------------------------------------------------------------------
 Center     Atomic      Atomic             Coordinates (Angstroms)
 Number     Number       Type             X           Y           Z
 ---------------------------------------------------------------------
      1          6           0       -3.376726   -1.164032    0.010437
      2          6           0       -2.216985   -0.217150   -0.011998
      3          6           0       -0.901745   -0.609314   -0.013663
      4          6           0        0.109626    0.399147    0.002586
      5          8           0       -0.095434    1.614214    0.015036
      6          6           0        1.571382   -0.106998   -0.001186
      7          9           0        1.791414   -0.853603   -1.097625
      8          9           0        2.435373    0.900764    0.014829
      9          9           0        1.785999   -0.883325    1.075567
     10          1           0       -0.636695   -1.656456   -0.025380
     11          8           0       -2.542678    1.055986   -0.002236
     12          1           0       -1.680082    1.547970    0.007445
     13          1           0       -3.666567   -1.368558    1.047949
     14          1           0       -4.238476   -0.719350   -0.492255
     15          1           0       -3.115669   -2.111507   -0.462085
 ---------------------------------------------------------------------
                    Distance matrix (angstroms):
                    1          2          3          4          5
     1  C    0.000000
     2  C    1.497360   0.000000
     3  C    2.536498   1.372462   0.000000
     4  C    3.820764   2.406897   1.428330   0.000000
     5  O    4.299482   2.802784   2.365382   1.232312   0.000000
     6  C    5.059765   3.789983   2.523655   1.546909   2.396061
     7  F    5.294699   4.201300   2.913375   2.368176   3.299747
     8  F    6.167973   4.784860   3.662990   2.379258   2.629447
     9  F    5.278923   4.201246   2.912983   2.367751   3.301850
    10  H    2.784157   2.137544   1.080229   2.187071   3.315400
    11  O    2.371556   1.314172   2.337951   2.732431   2.510163
    12  H    3.198994   1.845072   2.293497   2.126705   1.586050
    13  H    1.096481   2.133194   3.057404   4.298511   4.766217
    14  H    1.092271   2.137587   3.372675   4.516846   4.782014
    15  H    1.090476   2.144482   2.712771   4.113615   4.819799
                    6          7          8          9         10
     6  C    0.000000
     7  F    1.344623   0.000000
     8  F    1.327525   2.174866   0.000000
     9  F    1.344671   2.173402   2.174816   0.000000
    10  H    2.697593   2.773084   3.997323   2.771148   0.000000
    11  O    4.275281   4.861148   4.980499   4.864158   3.315214
    12  H    3.648426   4.363487   4.166041   4.366440   3.370174
    13  H    5.488928   5.887124   6.591724   5.474184   3.227235
    14  H    5.862642   6.061689   6.886375   6.227299   3.750862
    15  H    5.118489   5.105457   6.333663   5.281965   2.557947
                   11         12         13         14         15
    11  O    0.000000
    12  H    0.993083   0.000000
    13  H    2.871312   3.678982   0.000000
    14  H    2.503531   3.454825   1.766573   0.000000
    15  H    3.251583   3.958932   1.770782   1.788773   0.000000
 Stoichiometry    C5H5F3O2
 Framework group  C1[X(C5H5F3O2)]
 Deg. of freedom    39
 Full point group                 C1      NOp   1
 Largest Abelian subgroup         C1      NOp   1
 Largest concise Abelian subgroup C1      NOp   1
                         Standard orientation:                         
 ---------------------------------------------------------------------
 Center     Atomic      Atomic             Coordinates (Angstroms)
 Number     Number       Type             X           Y           Z
 ---------------------------------------------------------------------
      1          6           0       -3.306730   -1.009605    0.009129
      2          6           0       -2.106040   -0.115247   -0.014436
      3          6           0       -0.809521   -0.565458   -0.013391
      4          6           0        0.245638    0.397116    0.001375
      5          8           0        0.094752    1.620123    0.010259
      6          6           0        1.683466   -0.173479    0.000807
      7          9           0        1.871344   -0.932163   -1.093319
      8          9           0        2.591359    0.794945    0.015156
      9          9           0        1.862165   -0.955581    1.079938
     10          1           0       -0.591245   -1.623370   -0.021925
     11          8           0       -2.374857    1.171124   -0.008548
     12          1           0       -1.491265    1.624324    0.000870
     13          1           0       -3.606541   -1.198171    1.046832
     14          1           0       -4.147305   -0.528474   -0.495849
     15          1           0       -3.087495   -1.969051   -0.460485
 ---------------------------------------------------------------------
 Rotational constants (GHZ):           2.7277068           0.7606209           0.6677719
 Standard basis: GTBas3 (6D, 7F)
 There are   335 symmetry adapted cartesian basis functions of A   symmetry.
 There are   305 symmetry adapted basis functions of A   symmetry.
   305 basis functions,   475 primitive gaussians,   335 cartesian basis functions
    39 alpha electrons       39 beta electrons
       nuclear repulsion energy       566.9179174849 Hartrees.
 NAtoms=   15 NActive=   15 NUniq=   15 SFac= 1.00D+00 NAtFMM=   60 NAOKFM=F Big=F
 Integral buffers will be    131072 words long.
 Raffenetti 2 integral format.
 Two-electron integral symmetry is turned on.
 One-electron integrals computed using PRISM.
 NBasis=   305 RedAO= T EigKep=  3.79D-04  NBF=   305
 NBsUse=   305 1.00D-06 EigRej= -1.00D+00 NBFU=   305
 Initial guess from the checkpoint file:  "/home/artemiy/opt/gaussian/scr/Gau-21397.chk"
 B after Tr=     0.000000   -0.000000    0.000000
         Rot=    0.999995   -0.000419    0.000220    0.003257 Ang=  -0.38 deg.
 ExpMin= 1.61D-01 ExpMax= 7.00D+03 ExpMxC= 1.05D+03 IAcc=2 IRadAn=         4 AccDes= 0.00D+00
 Harris functional with IExCor=  402 and IRadAn=       4 diagonalized for initial guess.
 HarFok:  IExCor=  402 AccDes= 0.00D+00 IRadAn=         4 IDoV= 1 UseB2=F ITyADJ=14
 ICtDFT=  3500011 ScaDFX=  1.000000  1.000000  1.000000  1.000000
 FoFCou: FMM=F IPFlag=           0 FMFlag=      100000 FMFlg1=           0
         NFxFlg=           0 DoJE=T BraDBF=F KetDBF=T FulRan=T
         wScrn=  0.000000 ICntrl=       500 IOpCl=  0 I1Cent=   200000004 NGrid=           0
         NMat0=    1 NMatS0=      1 NMatT0=    0 NMatD0=    1 NMtDS0=    0 NMtDT0=    0
 Petite list used in FoFCou.
 Keep R1 ints in memory in canonical form, NReq=1107802389.
 Requested convergence on RMS density matrix=1.00D-08 within 128 cycles.
 Requested convergence on MAX density matrix=1.00D-06.
 Requested convergence on             energy=1.00D-06.
 No special actions if energy rises.
 Integral accuracy reduced to 1.0D-05 until final iterations.
 Initial convergence to 1.0D-05 achieved.  Increase integral accuracy.
 SCF Done:  E(RB3LYP) =  -643.553792221     A.U. after   12 cycles
            NFock= 12  Conv=0.53D-08     -V/T= 2.0061
 Calling FoFJK, ICntrl=      2127 FMM=F ISym2X=0 I1Cent= 0 IOpClX= 0 NMat=1 NMatS=1 NMatT=0.
 ***** Axes restored to original set *****
 -------------------------------------------------------------------
 Center     Atomic                   Forces (Hartrees/Bohr)
 Number     Number              X              Y              Z
 -------------------------------------------------------------------
      1        6           0.000791889    0.000643264    0.000124201
      2        6          -0.003429066   -0.002121577    0.000565675
      3        6           0.002431261    0.000544040   -0.000462624
      4        6           0.002690329   -0.010065095   -0.000435839
      5        8           0.000802150    0.005420005    0.000084326
      6        6          -0.000972510    0.002148883    0.000165593
      7        9           0.001318718    0.001214898    0.003062340
      8        9          -0.000896876   -0.003835776   -0.000071422
      9        9           0.001396929    0.001192213   -0.002960561
     10        1           0.000171756    0.000308788   -0.000078818
     11        8          -0.009913187   -0.004299871    0.000159522
     12        1           0.005256753    0.009287983    0.000220290
     13        1          -0.000030778    0.000301024   -0.000076153
     14        1           0.000532227    0.000072971   -0.000411049
     15        1          -0.000149596   -0.000811750    0.000114518
 -------------------------------------------------------------------
 Cartesian Forces:  Max     0.010065095 RMS     0.003129702

 GradGradGradGradGradGradGradGradGradGradGradGradGradGradGradGradGradGrad
 Berny optimization.
 Using GEDIIS/GDIIS optimizer.
 FormGI is forming the generalized inverse of G from B-inverse, IUseBI=4.
 Internal  Forces:  Max     0.012315463 RMS     0.003693012
 Search for a local minimum.
 Step number   2 out of a maximum of   68
 All quantities printed in internal units (Hartrees-Bohrs-Radians)
 Mixed Optimization -- RFO/linear search
 Update second derivatives using D2CorX and points    1    2
 DE= -1.02D-03 DEPred=-1.86D-03 R= 5.48D-01
 TightC=F SS=  1.41D+00  RLast= 1.45D-01 DXNew= 5.0454D-01 4.3644D-01
 Trust test= 5.48D-01 RLast= 1.45D-01 DXMaxT set to 4.36D-01
 ITU=  1  0
 Use linear search instead of GDIIS.
     Eigenvalues ---    0.00230   0.00886   0.00933   0.01766   0.01844
     Eigenvalues ---    0.02144   0.02442   0.02884   0.07322   0.07571
     Eigenvalues ---    0.10740   0.11172   0.15714   0.16000   0.16000
     Eigenvalues ---    0.16000   0.16908   0.20397   0.23231   0.24998
     Eigenvalues ---    0.24999   0.25000   0.25000   0.25000   0.27919
     Eigenvalues ---    0.33133   0.34541   0.35070   0.35284   0.36460
     Eigenvalues ---    0.38596   0.41965   0.49614   0.54952   0.56024
     Eigenvalues ---    0.58468   0.61424   0.66058   0.90574
 RFO step:  Lambda=-1.11269295D-03 EMin= 2.29997456D-03
 Quartic linear search produced a step of -0.30784.
 Iteration  1 RMS(Cart)=  0.03972809 RMS(Int)=  0.00069926
 Iteration  2 RMS(Cart)=  0.00080126 RMS(Int)=  0.00003361
 Iteration  3 RMS(Cart)=  0.00000040 RMS(Int)=  0.00003360
 Variable       Old X    -DE/DX   Delta X   Delta X   Delta X     New X
                                 (Linear)    (Quad)   (Total)
    R1        2.82960  -0.00102  -0.00468   0.00700   0.00231   2.83192
    R2        2.07205  -0.00012  -0.00375   0.00702   0.00327   2.07532
    R3        2.06409  -0.00020  -0.00317   0.00575   0.00258   2.06667
    R4        2.06070   0.00062  -0.00305   0.00711   0.00406   2.06476
    R5        2.59358   0.00753   0.00041   0.00949   0.00991   2.60348
    R6        2.48342   0.00599  -0.00254   0.01122   0.00868   2.49210
    R7        2.69915   0.00030  -0.00574   0.01151   0.00578   2.70493
    R8        2.04134  -0.00026  -0.00293   0.00519   0.00225   2.04359
    R9        2.32873   0.00521  -0.00323   0.00997   0.00675   2.33548
   R10        2.92323   0.00056  -0.00005   0.00149   0.00144   2.92467
   R11        2.54097  -0.00296   0.00040  -0.00440  -0.00399   2.53698
   R12        2.50866  -0.00350   0.00094  -0.00581  -0.00487   2.50378
   R13        2.54106  -0.00284   0.00041  -0.00426  -0.00385   2.53721
   R14        1.87665   0.00917   0.00116   0.01075   0.01192   1.88857
    A1        1.91439  -0.00019  -0.00350   0.00642   0.00294   1.91732
    A2        1.92487  -0.00073  -0.00320   0.00314  -0.00006   1.92481
    A3        1.93642   0.00079   0.00109   0.00124   0.00232   1.93874
    A4        1.87849   0.00034   0.00158  -0.00191  -0.00030   1.87819
    A5        1.88728  -0.00016   0.00156  -0.00341  -0.00186   1.88542
    A6        1.92109  -0.00005   0.00251  -0.00564  -0.00313   1.91796
    A7        2.16706  -0.00623  -0.01027   0.00313  -0.00714   2.15992
    A8        2.00486  -0.00609   0.00240  -0.02144  -0.01903   1.98582
    A9        2.11101   0.01232   0.00792   0.01822   0.02614   2.13716
   A10        2.06781   0.01088   0.00780   0.01846   0.02626   2.09407
   A11        2.10846  -0.00519  -0.00099  -0.01408  -0.01507   2.09339
   A12        2.10691  -0.00569  -0.00681  -0.00438  -0.01119   2.09572
   A13        2.18762   0.00158   0.00474  -0.00500  -0.00025   2.18737
   A14        2.02423   0.00078  -0.00950   0.02086   0.01135   2.03559
   A15        2.07132  -0.00236   0.00476  -0.01585  -0.01109   2.06023
   A16        1.91590   0.00242   0.00701  -0.00745  -0.00036   1.91555
   A17        1.94613   0.00211   0.00886  -0.01167  -0.00271   1.94342
   A18        1.91534   0.00257   0.00723  -0.00741  -0.00008   1.91526
   A19        1.90164  -0.00236  -0.00814   0.00942   0.00138   1.90303
   A20        1.88207  -0.00261  -0.00818   0.00844   0.00033   1.88240
   A21        1.90153  -0.00236  -0.00813   0.00958   0.00155   1.90308
   A22        1.83874   0.01025   0.02244  -0.00165   0.02079   1.85953
    D1        1.58619   0.00059  -0.00683   0.06194   0.05515   1.64134
    D2       -1.53156   0.00032  -0.00964   0.06591   0.05626  -1.47530
    D3       -2.63101   0.00045  -0.00891   0.06545   0.05655  -2.57446
    D4        0.53442   0.00018  -0.01172   0.06941   0.05766   0.59208
    D5       -0.49774   0.00042  -0.00720   0.06128   0.05411  -0.44363
    D6        2.66769   0.00015  -0.01001   0.06525   0.05522   2.72291
    D7       -3.11071  -0.00003  -0.00400   0.00929   0.00530  -3.10540
    D8        0.02919  -0.00001  -0.00407   0.00998   0.00592   0.03511
    D9        0.00567  -0.00001  -0.00108   0.00457   0.00347   0.00914
   D10       -3.13762   0.00001  -0.00116   0.00525   0.00408  -3.13354
   D11        3.11356  -0.00010   0.00257  -0.00777  -0.00525   3.10832
   D12       -0.00503  -0.00009   0.00003  -0.00374  -0.00367  -0.00870
   D13       -0.00323  -0.00002   0.00075  -0.00221  -0.00145  -0.00468
   D14       -3.14089  -0.00011  -0.00008  -0.00451  -0.00459   3.13771
   D15        3.14005  -0.00004   0.00082  -0.00289  -0.00206   3.13799
   D16        0.00240  -0.00012  -0.00001  -0.00519  -0.00520  -0.00281
   D17        1.03258  -0.00002  -0.00049   0.00616   0.00567   1.03826
   D18       -3.14151   0.00002   0.00005   0.00535   0.00540  -3.13611
   D19       -1.03294   0.00016   0.00076   0.00479   0.00553  -1.02741
   D20       -2.10535  -0.00011  -0.00126   0.00400   0.00275  -2.10260
   D21        0.00375  -0.00007  -0.00072   0.00319   0.00248   0.00622
   D22        2.11232   0.00007  -0.00002   0.00263   0.00261   2.11492
         Item               Value     Threshold  Converged?
 Maximum Force            0.012315     0.000450     NO 
 RMS     Force            0.003693     0.000300     NO 
 Maximum Displacement     0.138414     0.001800     NO 
 RMS     Displacement     0.039833     0.001200     NO 
 Predicted change in Energy=-7.702936D-04
 GradGradGradGradGradGradGradGradGradGradGradGradGradGradGradGradGradGrad

                          Input orientation:                          
 ---------------------------------------------------------------------
 Center     Atomic      Atomic             Coordinates (Angstroms)
 Number     Number       Type             X           Y           Z
 ---------------------------------------------------------------------
      1          6           0       -3.372970   -1.170407    0.013545
      2          6           0       -2.225438   -0.206900   -0.010600
      3          6           0       -0.902664   -0.591932   -0.019893
      4          6           0        0.130710    0.398291    0.001709
      5          8           0       -0.051068    1.620521    0.024401
      6          6           0        1.588840   -0.120444   -0.005264
      7          9           0        1.803639   -0.855520   -1.107923
      8          9           0        2.456914    0.880121    0.022952
      9          9           0        1.794636   -0.909038    1.061709
     10          1           0       -0.646375   -1.642303   -0.042494
     11          8           0       -2.593743    1.059256    0.007727
     12          1           0       -1.753327    1.599913    0.020820
     13          1           0       -3.694451   -1.341687    1.049589
     14          1           0       -4.225531   -0.758397   -0.533652
     15          1           0       -3.086434   -2.133682   -0.415206
 ---------------------------------------------------------------------
                    Distance matrix (angstroms):
                    1          2          3          4          5
     1  C    0.000000
     2  C    1.498585   0.000000
     3  C    2.537354   1.377704   0.000000
     4  C    3.838844   2.432661   1.431387   0.000000
     5  O    4.338713   2.840524   2.371102   1.235882   0.000000
     6  C    5.071719   3.815261   2.535765   1.547669   2.391890
     7  F    5.306046   4.225906   2.928713   2.366858   3.294370
     8  F    6.179991   4.806991   3.668179   2.375676   2.614989
     9  F    5.279309   4.219459   2.923327   2.366719   3.298681
    10  H    2.767696   2.134207   1.081422   2.183995   3.317361
    11  O    2.361911   1.318763   2.363669   2.803489   2.603938
    12  H    3.209044   1.867739   2.351483   2.234694   1.702388
    13  H    1.098214   2.137696   3.082207   4.330985   4.806238
    14  H    1.093636   2.139651   3.366468   4.538873   4.837026
    15  H    1.092625   2.148839   2.702243   4.115181   4.847756
                    6          7          8          9         10
     6  C    0.000000
     7  F    1.342510   0.000000
     8  F    1.324945   2.172118   0.000000
     9  F    1.342633   2.170310   2.172261   0.000000
    10  H    2.704372   2.785091   3.999663   2.777674   0.000000
    11  O    4.345786   4.924226   5.053855   4.923710   3.330643
    12  H    3.759041   4.467127   4.271327   4.468370   3.426560
    13  H    5.524248   5.926231   6.620401   5.506124   3.251735
    14  H    5.873082   6.057236   6.902871   6.229790   3.719258
    15  H    5.106796   5.101604   6.324848   5.244604   2.516794
                   11         12         13         14         15
    11  O    0.000000
    12  H    0.999389   0.000000
    13  H    2.839289   3.671422   0.000000
    14  H    2.501937   3.461338   1.768878   0.000000
    15  H    3.258292   3.988361   1.772728   1.789687   0.000000
 Stoichiometry    C5H5F3O2
 Framework group  C1[X(C5H5F3O2)]
 Deg. of freedom    39
 Full point group                 C1      NOp   1
 Largest Abelian subgroup         C1      NOp   1
 Largest concise Abelian subgroup C1      NOp   1
                         Standard orientation:                         
 ---------------------------------------------------------------------
 Center     Atomic      Atomic             Coordinates (Angstroms)
 Number     Number       Type             X           Y           Z
 ---------------------------------------------------------------------
      1          6           0       -3.303672   -1.029346    0.012200
      2          6           0       -2.119143   -0.111820   -0.016009
      3          6           0       -0.812478   -0.548500   -0.017822
      4          6           0        0.258894    0.400576   -0.000878
      5          8           0        0.125158    1.629141    0.011277
      6          6           0        1.695556   -0.174989    0.001160
      7          9           0        1.884609   -0.927001   -1.094772
      8          9           0        2.602143    0.790958    0.024092
      9          9           0        1.867079   -0.962213    1.075181
     10          1           0       -0.597544   -1.608265   -0.031039
     11          8           0       -2.437525    1.167915   -0.009189
     12          1           0       -1.576580    1.675284    0.002269
     13          1           0       -3.634698   -1.179327    1.048540
     14          1           0       -4.137780   -0.588745   -0.541130
     15          1           0       -3.053892   -2.006624   -0.407760
 ---------------------------------------------------------------------
 Rotational constants (GHZ):           2.7166997           0.7511454           0.6596054
 Standard basis: GTBas3 (6D, 7F)
 There are   335 symmetry adapted cartesian basis functions of A   symmetry.
 There are   305 symmetry adapted basis functions of A   symmetry.
   305 basis functions,   475 primitive gaussians,   335 cartesian basis functions
    39 alpha electrons       39 beta electrons
       nuclear repulsion energy       564.7261628183 Hartrees.
 NAtoms=   15 NActive=   15 NUniq=   15 SFac= 1.00D+00 NAtFMM=   60 NAOKFM=F Big=F
 Integral buffers will be    131072 words long.
 Raffenetti 2 integral format.
 Two-electron integral symmetry is turned on.
 One-electron integrals computed using PRISM.
 NBasis=   305 RedAO= T EigKep=  3.92D-04  NBF=   305
 NBsUse=   305 1.00D-06 EigRej= -1.00D+00 NBFU=   305
 Initial guess from the checkpoint file:  "/home/artemiy/opt/gaussian/scr/Gau-21397.chk"
 B after Tr=     0.000000   -0.000000   -0.000000
         Rot=    0.999999   -0.000527    0.000347   -0.001043 Ang=  -0.14 deg.
 ExpMin= 1.61D-01 ExpMax= 7.00D+03 ExpMxC= 1.05D+03 IAcc=2 IRadAn=         4 AccDes= 0.00D+00
 Harris functional with IExCor=  402 and IRadAn=       4 diagonalized for initial guess.
 HarFok:  IExCor=  402 AccDes= 0.00D+00 IRadAn=         4 IDoV= 1 UseB2=F ITyADJ=14
 ICtDFT=  3500011 ScaDFX=  1.000000  1.000000  1.000000  1.000000
 FoFCou: FMM=F IPFlag=           0 FMFlag=      100000 FMFlg1=           0
         NFxFlg=           0 DoJE=T BraDBF=F KetDBF=T FulRan=T
         wScrn=  0.000000 ICntrl=       500 IOpCl=  0 I1Cent=   200000004 NGrid=           0
         NMat0=    1 NMatS0=      1 NMatT0=    0 NMatD0=    1 NMtDS0=    0 NMtDT0=    0
 Petite list used in FoFCou.
 Keep R1 ints in memory in canonical form, NReq=1107802389.
 Requested convergence on RMS density matrix=1.00D-08 within 128 cycles.
 Requested convergence on MAX density matrix=1.00D-06.
 Requested convergence on             energy=1.00D-06.
 No special actions if energy rises.
 Integral accuracy reduced to 1.0D-05 until final iterations.
 Initial convergence to 1.0D-05 achieved.  Increase integral accuracy.
 SCF Done:  E(RB3LYP) =  -643.554233714     A.U. after   11 cycles
            NFock= 11  Conv=0.10D-07     -V/T= 2.0063
 Calling FoFJK, ICntrl=      2127 FMM=F ISym2X=0 I1Cent= 0 IOpClX= 0 NMat=1 NMatS=1 NMatT=0.
 ***** Axes restored to original set *****
 -------------------------------------------------------------------
 Center     Atomic                   Forces (Hartrees/Bohr)
 Number     Number              X              Y              Z
 -------------------------------------------------------------------
      1        6           0.001033089   -0.001227667   -0.000198516
      2        6           0.001809390   -0.003197219    0.000756325
      3        6          -0.002332882    0.001761148   -0.000646523
      4        6          -0.002003118    0.001906653   -0.000062739
      5        8          -0.002929183   -0.002428903   -0.000073907
      6        6          -0.004083643    0.001526115    0.000080833
      7        9           0.001838111    0.000015479    0.001283619
      8        9           0.000485849   -0.002609557   -0.000053693
      9        9           0.001903530    0.000067836   -0.001271280
     10        1          -0.000290620    0.000634607    0.000099425
     11        8           0.004790456    0.002641586    0.000491343
     12        1          -0.001267561   -0.000564397   -0.000068563
     13        1           0.000316843    0.000906482   -0.001075467
     14        1           0.001065471   -0.000062640    0.000138411
     15        1          -0.000335732    0.000630478    0.000600732
 -------------------------------------------------------------------
 Cartesian Forces:  Max     0.004790456 RMS     0.001638529

 GradGradGradGradGradGradGradGradGradGradGradGradGradGradGradGradGradGrad
 Berny optimization.
 Using GEDIIS/GDIIS optimizer.
 FormGI is forming the generalized inverse of G from B-inverse, IUseBI=4.
 Internal  Forces:  Max     0.007360128 RMS     0.002268676
 Search for a local minimum.
 Step number   3 out of a maximum of   68
 All quantities printed in internal units (Hartrees-Bohrs-Radians)
 Mixed Optimization -- RFO/linear search
 Update second derivatives using D2CorX and points    1    2    3
 DE= -4.41D-04 DEPred=-7.70D-04 R= 5.73D-01
 TightC=F SS=  1.41D+00  RLast= 1.50D-01 DXNew= 7.3401D-01 4.4863D-01
 Trust test= 5.73D-01 RLast= 1.50D-01 DXMaxT set to 4.49D-01
 ITU=  1  1  0
 Use linear search instead of GDIIS.
     Eigenvalues ---    0.00230   0.00615   0.00938   0.01786   0.01843
     Eigenvalues ---    0.02144   0.02442   0.02883   0.07305   0.07561
     Eigenvalues ---    0.10771   0.11183   0.15680   0.16000   0.16000
     Eigenvalues ---    0.16031   0.17616   0.20681   0.23401   0.24998
     Eigenvalues ---    0.24999   0.25000   0.25000   0.27891   0.30693
     Eigenvalues ---    0.34070   0.34991   0.35248   0.35522   0.36625
     Eigenvalues ---    0.39612   0.44848   0.50449   0.55843   0.56024
     Eigenvalues ---    0.59093   0.62534   0.80754   0.95250
 RFO step:  Lambda=-2.72864991D-04 EMin= 2.29902964D-03
 Quartic linear search produced a step of -0.30128.
 Iteration  1 RMS(Cart)=  0.01520740 RMS(Int)=  0.00007979
 Iteration  2 RMS(Cart)=  0.00011687 RMS(Int)=  0.00000689
 Iteration  3 RMS(Cart)=  0.00000000 RMS(Int)=  0.00000689
 Variable       Old X    -DE/DX   Delta X   Delta X   Delta X     New X
                                 (Linear)    (Quad)   (Total)
    R1        2.83192  -0.00176  -0.00070  -0.00220  -0.00289   2.82902
    R2        2.07532  -0.00125  -0.00099  -0.00072  -0.00171   2.07362
    R3        2.06667  -0.00092  -0.00078  -0.00048  -0.00126   2.06542
    R4        2.06476  -0.00088  -0.00122   0.00033  -0.00089   2.06387
    R5        2.60348  -0.00735  -0.00298  -0.00310  -0.00608   2.59740
    R6        2.49210   0.00102  -0.00261   0.00493   0.00231   2.49441
    R7        2.70493  -0.00451  -0.00174  -0.00348  -0.00522   2.69971
    R8        2.04359  -0.00069  -0.00068  -0.00020  -0.00088   2.04271
    R9        2.33548  -0.00197  -0.00203   0.00191  -0.00012   2.33536
   R10        2.92467   0.00047  -0.00043   0.00162   0.00118   2.92585
   R11        2.53698  -0.00077   0.00120  -0.00268  -0.00148   2.53550
   R12        2.50378  -0.00165   0.00147  -0.00384  -0.00237   2.50141
   R13        2.53721  -0.00076   0.00116  -0.00260  -0.00144   2.53577
   R14        1.88857  -0.00137  -0.00359   0.00440   0.00081   1.88939
    A1        1.91732  -0.00062  -0.00088  -0.00134  -0.00222   1.91510
    A2        1.92481  -0.00074   0.00002  -0.00336  -0.00335   1.92147
    A3        1.93874   0.00061  -0.00070   0.00390   0.00320   1.94194
    A4        1.87819   0.00035   0.00009   0.00010   0.00018   1.87837
    A5        1.88542   0.00026   0.00056   0.00095   0.00152   1.88694
    A6        1.91796   0.00016   0.00094  -0.00029   0.00066   1.91862
    A7        2.15992   0.00199   0.00215  -0.00018   0.00197   2.16190
    A8        1.98582   0.00374   0.00573  -0.00075   0.00498   1.99080
    A9        2.13716  -0.00572  -0.00788   0.00102  -0.00686   2.13029
   A10        2.09407  -0.00736  -0.00791  -0.00476  -0.01267   2.08139
   A11        2.09339   0.00355   0.00454   0.00137   0.00591   2.09930
   A12        2.09572   0.00381   0.00337   0.00339   0.00676   2.10249
   A13        2.18737  -0.00427   0.00008  -0.00896  -0.00888   2.17849
   A14        2.03559   0.00093  -0.00342   0.00653   0.00311   2.03869
   A15        2.06023   0.00333   0.00334   0.00243   0.00577   2.06600
   A16        1.91555   0.00260   0.00011   0.00622   0.00631   1.92186
   A17        1.94342   0.00245   0.00082   0.00511   0.00591   1.94933
   A18        1.91526   0.00272   0.00002   0.00666   0.00666   1.92192
   A19        1.90303  -0.00263  -0.00042  -0.00587  -0.00630   1.89672
   A20        1.88240  -0.00270  -0.00010  -0.00683  -0.00695   1.87546
   A21        1.90308  -0.00267  -0.00047  -0.00583  -0.00632   1.89676
   A22        1.85953   0.00040  -0.00626   0.01417   0.00791   1.86743
    D1        1.64134   0.00060  -0.01662   0.02240   0.00578   1.64713
    D2       -1.47530   0.00058  -0.01695   0.01855   0.00159  -1.47371
    D3       -2.57446   0.00019  -0.01704   0.01964   0.00261  -2.57185
    D4        0.59208   0.00017  -0.01737   0.01579  -0.00158   0.59049
    D5       -0.44363   0.00029  -0.01630   0.01961   0.00331  -0.44032
    D6        2.72291   0.00027  -0.01664   0.01576  -0.00088   2.72203
    D7       -3.10540  -0.00017  -0.00160  -0.00359  -0.00518  -3.11058
    D8        0.03511  -0.00018  -0.00178  -0.00361  -0.00539   0.02972
    D9        0.00914  -0.00000  -0.00105   0.00056  -0.00049   0.00865
   D10       -3.13354  -0.00001  -0.00123   0.00054  -0.00069  -3.13423
   D11        3.10832   0.00012   0.00158   0.00160   0.00318   3.11149
   D12       -0.00870  -0.00002   0.00110  -0.00218  -0.00107  -0.00977
   D13       -0.00468  -0.00002   0.00044  -0.00070  -0.00027  -0.00495
   D14        3.13771  -0.00003   0.00138  -0.00233  -0.00095   3.13676
   D15        3.13799  -0.00001   0.00062  -0.00068  -0.00006   3.13793
   D16       -0.00281  -0.00002   0.00157  -0.00231  -0.00074  -0.00355
   D17        1.03826  -0.00004  -0.00171  -0.00339  -0.00510   1.03316
   D18       -3.13611  -0.00001  -0.00163  -0.00326  -0.00489  -3.14100
   D19       -1.02741   0.00005  -0.00167  -0.00280  -0.00447  -1.03188
   D20       -2.10260  -0.00004  -0.00083  -0.00489  -0.00572  -2.10832
   D21        0.00622  -0.00001  -0.00075  -0.00477  -0.00552   0.00071
   D22        2.11492   0.00005  -0.00078  -0.00431  -0.00510   2.10983
         Item               Value     Threshold  Converged?
 Maximum Force            0.007360     0.000450     NO 
 RMS     Force            0.002269     0.000300     NO 
 Maximum Displacement     0.055623     0.001800     NO 
 RMS     Displacement     0.015241     0.001200     NO 
 Predicted change in Energy=-2.327947D-04
 GradGradGradGradGradGradGradGradGradGradGradGradGradGradGradGradGradGrad

                          Input orientation:                          
 ---------------------------------------------------------------------
 Center     Atomic      Atomic             Coordinates (Angstroms)
 Number     Number       Type             X           Y           Z
 ---------------------------------------------------------------------
      1          6           0       -3.374940   -1.167337    0.011660
      2          6           0       -2.221251   -0.213503   -0.007643
      3          6           0       -0.903768   -0.605070   -0.018866
      4          6           0        0.120663    0.390468    0.001556
      5          8           0       -0.080502    1.609594    0.024239
      6          6           0        1.584560   -0.113688   -0.005781
      7          9           0        1.812350   -0.853339   -1.101802
      8          9           0        2.447622    0.889726    0.015280
      9          9           0        1.808729   -0.895749    1.061340
     10          1           0       -0.647339   -1.654922   -0.041681
     11          8           0       -2.573996    1.058329    0.011851
     12          1           0       -1.730728    1.595323    0.025134
     13          1           0       -3.699554   -1.335094    1.046345
     14          1           0       -4.220935   -0.744464   -0.536116
     15          1           0       -3.098171   -2.132483   -0.418094
 ---------------------------------------------------------------------
                    Distance matrix (angstroms):
                    1          2          3          4          5
     1  C    0.000000
     2  C    1.497054   0.000000
     3  C    2.534515   1.374486   0.000000
     4  C    3.827023   2.418560   1.428627   0.000000
     5  O    4.308691   2.812028   2.363125   1.235820   0.000000
     6  C    5.070219   3.807120   2.536416   1.548296   2.396462
     7  F    5.314731   4.228062   2.934567   2.371973   3.304072
     8  F    6.175253   4.797501   3.669795   2.379954   2.628631
     9  F    5.295849   4.224799   2.934106   2.372142   3.304771
    10  H    2.771353   2.134490   1.080956   2.185249   3.314017
    11  O    2.365396   1.319987   2.357435   2.776208   2.553734
    12  H    3.214950   1.874444   2.351070   2.209046   1.650288
    13  H    1.097310   2.134065   3.079615   4.320094   4.776340
    14  H    1.092971   2.135401   3.360145   4.519584   4.795703
    15  H    1.092153   2.149405   2.703290   4.111239   4.827538
                    6          7          8          9         10
     6  C    0.000000
     7  F    1.341728   0.000000
     8  F    1.323691   2.165575   0.000000
     9  F    1.341871   2.163560   2.165720   0.000000
    10  H    2.712575   2.795793   4.007150   2.797368   0.000000
    11  O    4.320592   4.912710   5.024449   4.912038   3.328153
    12  H    3.729988   4.451891   4.237520   4.450496   3.426702
    13  H    5.524551   5.935293   6.618209   5.525797   3.256088
    14  H    5.863694   6.060724   6.887980   6.239519   3.720752
    15  H    5.116005   5.120242   6.330669   5.272182   2.525140
                   11         12         13         14         15
    11  O    0.000000
    12  H    0.999820   0.000000
    13  H    2.839988   3.675118   0.000000
    14  H    2.502546   3.462764   1.767728   0.000000
    15  H    3.262038   3.995358   1.772589   1.789169   0.000000
 Stoichiometry    C5H5F3O2
 Framework group  C1[X(C5H5F3O2)]
 Deg. of freedom    39
 Full point group                 C1      NOp   1
 Largest Abelian subgroup         C1      NOp   1
 Largest concise Abelian subgroup C1      NOp   1
                         Standard orientation:                         
 ---------------------------------------------------------------------
 Center     Atomic      Atomic             Coordinates (Angstroms)
 Number     Number       Type             X           Y           Z
 ---------------------------------------------------------------------
      1          6           0       -3.305892   -1.024364    0.010155
      2          6           0       -2.114986   -0.117536   -0.013830
      3          6           0       -0.814156   -0.561434   -0.016521
      4          6           0        0.249130    0.392597   -0.001651
      5          8           0        0.096721    1.618937    0.008861
      6          6           0        1.691749   -0.169598    0.001139
      7          9           0        1.893458   -0.928140   -1.087052
      8          9           0        2.594107    0.798745    0.015979
      9          9           0        1.880981   -0.949792    1.076363
     10          1           0       -0.599769   -1.620848   -0.028549
     11          8           0       -2.416738    1.167482   -0.007560
     12          1           0       -1.552753    1.670514    0.003801
     13          1           0       -3.640371   -1.169189    1.045162
     14          1           0       -4.132511   -0.573312   -0.544678
     15          1           0       -3.066452   -2.003827   -0.409510
 ---------------------------------------------------------------------
 Rotational constants (GHZ):           2.7323458           0.7526927           0.6612302
 Standard basis: GTBas3 (6D, 7F)
 There are   335 symmetry adapted cartesian basis functions of A   symmetry.
 There are   305 symmetry adapted basis functions of A   symmetry.
   305 basis functions,   475 primitive gaussians,   335 cartesian basis functions
    39 alpha electrons       39 beta electrons
       nuclear repulsion energy       565.5161828975 Hartrees.
 NAtoms=   15 NActive=   15 NUniq=   15 SFac= 1.00D+00 NAtFMM=   60 NAOKFM=F Big=F
 Integral buffers will be    131072 words long.
 Raffenetti 2 integral format.
 Two-electron integral symmetry is turned on.
 One-electron integrals computed using PRISM.
 NBasis=   305 RedAO= T EigKep=  3.86D-04  NBF=   305
 NBsUse=   305 1.00D-06 EigRej= -1.00D+00 NBFU=   305
 Initial guess from the checkpoint file:  "/home/artemiy/opt/gaussian/scr/Gau-21397.chk"
 B after Tr=    -0.000000    0.000000   -0.000000
         Rot=    0.999999    0.001402   -0.000110   -0.000887 Ang=   0.19 deg.
 ExpMin= 1.61D-01 ExpMax= 7.00D+03 ExpMxC= 1.05D+03 IAcc=2 IRadAn=         4 AccDes= 0.00D+00
 Harris functional with IExCor=  402 and IRadAn=       4 diagonalized for initial guess.
 HarFok:  IExCor=  402 AccDes= 0.00D+00 IRadAn=         4 IDoV= 1 UseB2=F ITyADJ=14
 ICtDFT=  3500011 ScaDFX=  1.000000  1.000000  1.000000  1.000000
 FoFCou: FMM=F IPFlag=           0 FMFlag=      100000 FMFlg1=           0
         NFxFlg=           0 DoJE=T BraDBF=F KetDBF=T FulRan=T
         wScrn=  0.000000 ICntrl=       500 IOpCl=  0 I1Cent=   200000004 NGrid=           0
         NMat0=    1 NMatS0=      1 NMatT0=    0 NMatD0=    1 NMtDS0=    0 NMtDT0=    0
 Petite list used in FoFCou.
 Keep R1 ints in memory in canonical form, NReq=1107802389.
 Requested convergence on RMS density matrix=1.00D-08 within 128 cycles.
 Requested convergence on MAX density matrix=1.00D-06.
 Requested convergence on             energy=1.00D-06.
 No special actions if energy rises.
 Integral accuracy reduced to 1.0D-05 until final iterations.
 Initial convergence to 1.0D-05 achieved.  Increase integral accuracy.
 SCF Done:  E(RB3LYP) =  -643.554455829     A.U. after   11 cycles
            NFock= 11  Conv=0.45D-08     -V/T= 2.0062
 Calling FoFJK, ICntrl=      2127 FMM=F ISym2X=0 I1Cent= 0 IOpClX= 0 NMat=1 NMatS=1 NMatT=0.
 ***** Axes restored to original set *****
 -------------------------------------------------------------------
 Center     Atomic                   Forces (Hartrees/Bohr)
 Number     Number              X              Y              Z
 -------------------------------------------------------------------
      1        6           0.000492325   -0.000591440   -0.000108237
      2        6          -0.000724994    0.001001310    0.000218469
      3        6           0.000587369    0.000461310   -0.000516992
      4        6          -0.001185024   -0.000111289    0.000050684
      5        8           0.001010592    0.000060495    0.000008891
      6        6          -0.001099391    0.000344504   -0.000005719
      7        9           0.000061666   -0.000218803   -0.000278421
      8        9           0.000189474    0.000139179    0.000022380
      9        9           0.000038713   -0.000164389    0.000228767
     10        1          -0.000103254    0.000437386    0.000042696
     11        8          -0.000380076   -0.001173519    0.000517826
     12        1           0.000620206   -0.001125792   -0.000096108
     13        1          -0.000001730    0.000602356   -0.000583744
     14        1           0.000542303   -0.000127252   -0.000022573
     15        1          -0.000048182    0.000465942    0.000522082
 -------------------------------------------------------------------
 Cartesian Forces:  Max     0.001185024 RMS     0.000520761

 GradGradGradGradGradGradGradGradGradGradGradGradGradGradGradGradGradGrad
 Berny optimization.
 Using GEDIIS/GDIIS optimizer.
 FormGI is forming the generalized inverse of G from B-inverse, IUseBI=4.
 Internal  Forces:  Max     0.002425680 RMS     0.000629999
 Search for a local minimum.
 Step number   4 out of a maximum of   68
 All quantities printed in internal units (Hartrees-Bohrs-Radians)
 Mixed Optimization -- En-DIIS/RFO-DIIS
 Update second derivatives using D2CorX and points    1    2    3    4
 DE= -2.22D-04 DEPred=-2.33D-04 R= 9.54D-01
 TightC=F SS=  1.41D+00  RLast= 3.40D-02 DXNew= 7.5450D-01 1.0213D-01
 Trust test= 9.54D-01 RLast= 3.40D-02 DXMaxT set to 4.49D-01
 ITU=  1  1  1  0
 Use linear search instead of GDIIS.
     Eigenvalues ---    0.00229   0.00580   0.00931   0.01777   0.01845
     Eigenvalues ---    0.02144   0.02440   0.02885   0.07298   0.07535
     Eigenvalues ---    0.10655   0.11068   0.15733   0.15999   0.16000
     Eigenvalues ---    0.16001   0.18472   0.23272   0.23766   0.24998
     Eigenvalues ---    0.25000   0.25000   0.25071   0.27801   0.33455
     Eigenvalues ---    0.34820   0.35153   0.35240   0.36570   0.36686
     Eigenvalues ---    0.40552   0.44716   0.49291   0.56015   0.56318
     Eigenvalues ---    0.59345   0.69619   0.77206   0.94028
 RFO step:  Lambda=-1.47094277D-04 EMin= 2.29283348D-03
 Quartic linear search produced a step of -0.06271.
 Iteration  1 RMS(Cart)=  0.02035329 RMS(Int)=  0.00039019
 Iteration  2 RMS(Cart)=  0.00040503 RMS(Int)=  0.00000097
 Iteration  3 RMS(Cart)=  0.00000013 RMS(Int)=  0.00000096
 Variable       Old X    -DE/DX   Delta X   Delta X   Delta X     New X
                                 (Linear)    (Quad)   (Total)
    R1        2.82902  -0.00099   0.00018  -0.00298  -0.00279   2.82623
    R2        2.07362  -0.00064   0.00011  -0.00137  -0.00126   2.07235
    R3        2.06542  -0.00046   0.00008  -0.00088  -0.00080   2.06462
    R4        2.06387  -0.00063   0.00006  -0.00088  -0.00083   2.06304
    R5        2.59740  -0.00074   0.00038  -0.00210  -0.00172   2.59569
    R6        2.49441  -0.00227  -0.00015  -0.00026  -0.00040   2.49401
    R7        2.69971  -0.00067   0.00033  -0.00193  -0.00160   2.69811
    R8        2.04271  -0.00045   0.00006  -0.00074  -0.00069   2.04202
    R9        2.33536  -0.00011   0.00001   0.00153   0.00153   2.33690
   R10        2.92585  -0.00080  -0.00007  -0.00182  -0.00189   2.92396
   R11        2.53550   0.00036   0.00009  -0.00088  -0.00078   2.53471
   R12        2.50141   0.00023   0.00015  -0.00173  -0.00158   2.49983
   R13        2.53577   0.00028   0.00009  -0.00096  -0.00087   2.53490
[...]
    12  H   -0.000159  -0.000091  -0.000090   0.000486   0.297409   0.235271
    13  H    0.000004   0.000002  -0.000005   0.000144  -0.001603  -0.000383
    14  H    0.000004  -0.000005   0.000002   0.000145  -0.001605  -0.000384
    15  H   -0.000026  -0.000001  -0.000001   0.000360   0.005216  -0.000234
              13         14         15
     1  C    0.401157   0.401161   0.413080
     2  C   -0.023748  -0.023749  -0.025641
     3  C    0.002401   0.002411  -0.010460
     4  C   -0.001435  -0.001440   0.001851
     5  O    0.000290   0.000290   0.000099
     6  C    0.000117   0.000118   0.000046
     7  F    0.000004   0.000004  -0.000026
     8  F    0.000002  -0.000005  -0.000001
     9  F   -0.000005   0.000002  -0.000001
    10  H    0.000144   0.000145   0.000360
    11  O   -0.001603  -0.001605   0.005216
    12  H   -0.000383  -0.000384  -0.000234
    13  H    0.448392  -0.017964  -0.017170
    14  H   -0.017964   0.448375  -0.017169
    15  H   -0.017170  -0.017169   0.466195
 Mulliken charges:
               1
     1  C   -0.551653
     2  C    0.451547
     3  C   -0.397278
     4  C    0.504826
     5  O   -0.605651
     6  C    0.728454
     7  F   -0.301963
     8  F   -0.274132
     9  F   -0.274184
    10  H    0.221314
    11  O   -0.554425
    12  H    0.449676
    13  H    0.209803
    14  H    0.209810
    15  H    0.183857
 Sum of Mulliken charges =  -0.00000
 Mulliken charges with hydrogens summed into heavy atoms:
               1
     1  C    0.051816
     2  C    0.451547
     3  C   -0.175964
     4  C    0.504826
     5  O   -0.605651
     6  C    0.728454
     7  F   -0.301963
     8  F   -0.274132
     9  F   -0.274184
    11  O   -0.104749
 Electronic spatial extent (au):  <R**2>=           1647.5966
 Charge=             -0.0000 electrons
 Dipole moment (field-independent basis, Debye):
    X=             -3.4085    Y=             -2.8100    Z=              0.0000  Tot=              4.4174
 Quadrupole moment (field-independent basis, Debye-Ang):
   XX=            -52.9395   YY=            -58.6309   ZZ=            -56.7957
   XY=              4.3937   XZ=              0.0003   YZ=              0.0002
 Traceless Quadrupole moment (field-independent basis, Debye-Ang):
   XX=              3.1825   YY=             -2.5089   ZZ=             -0.6737
   XY=              4.3937   XZ=              0.0003   YZ=              0.0002
 Octapole moment (field-independent basis, Debye-Ang**2):
  XXX=              5.9059  YYY=             -3.9736  ZZZ=             -0.0016  XYY=              6.5972
  XXY=            -16.0427  XXZ=              0.0029  XZZ=              7.7773  YZZ=              0.9803
  YYZ=              0.0049  XYZ=              0.0020
 Hexadecapole moment (field-independent basis, Debye-Ang**3):
 XXXX=          -1352.8061 YYYY=           -333.1598 ZZZZ=           -124.2543 XXXY=             35.1115
 XXXZ=              0.0152 YYYX=            -14.2793 YYYZ=              0.0004 ZZZX=             -0.0119
 ZZZY=             -0.0002 XXYY=           -300.8751 XXZZ=           -256.3785 YYZZ=            -78.9955
 XXYZ=              0.0017 YYXZ=              0.0082 ZZXY=             -7.5774
 N-N= 5.657011471450D+02 E-N=-2.648415108406D+03  KE= 6.399783840835D+02
 1\1\GINC-ARTEMIY-VIRTUALBOX\SP\RHF\GFHFB2\C5H5F3O2\ARTEMIY\13-Nov-2021
 \0\\#N Geom=AllCheck Guess=TCheck SCRF=Check HF/GFHFB2 SCF=Tight\\Titl
 e Card Required\\0,1\C,0,-3.3960881862,-1.1354396002,-0.1515805552\C,0
 ,-2.2260336991,-0.232402035,0.0641901859\C,0,-0.9149207857,-0.62180955
 19,-0.0972072598\C,0,0.1197962983,0.327909248,0.1371691715\O,0,-0.0624
 847328,1.5037327946,0.4822661673\C,0,1.5911607031,-0.1093448544,-0.043
 5530329\F,0,1.6974887829,-1.39207719,-0.4179639273\F,0,2.1815812038,0.
 6427378511,-0.9747975399\F,0,2.2584539848,0.0428690686,1.1022714075\H,
 0,-0.6780480719,-1.6304816278,-0.3963071492\O,0,-2.547310169,0.9906240
 606,0.4281193054\H,0,-1.6834789793,1.4905314915,0.5394643518\H,0,-3.98
 62224325,-1.2001653041,0.7685565432\H,0,-4.04995188,-0.7136838848,-0.9
 22086978\H,0,-3.0812041701,-2.1352109513,-0.4511204136\\Version=ES64L-
 G16RevA.03\State=1-A\HF=-640.5949745\RMSD=6.072e-09\Dipole=-1.2954115,
 -1.1254757,-0.2751103\Quadrupole=2.0981287,-1.4508987,-0.64723,3.31382
 4,0.8558855,-0.3973778\PG=C01 [X(C5H5F3O2)]\\@


 We find comfort among those who agree with us -- growth among those who don't.
 -- Frank A. Clark
 Diagonal vibrational polarizability:
        0.0000000       0.0000000       0.0000000
 
 Temperature=              298.150000 Pressure=                      1.000000
 E(ZPE)=                     0.098854 E(Thermal)=                    0.108579
 E(QCISD(T))=             -641.874265 E(Empiric)=                   -0.201463
 E(CCSD(T))=                -0.201463 E(Empiric)=                   -0.049489
 DE(Plus)=                  -0.449819 DE(2DF)=                      -0.749656
 E(Delta-G3XP)=             -0.070965 DE(HF)=                     -643.296803
 G4(0 K)=                 -643.287078 G4 Energy=                  -643.286134
 G4 Enthalpy=             -643.333800 G4 Free Energy=    
 1\1\GINC-ARTEMIY-VIRTUALBOX\Mixed\G4\G4\C5H5F3O2\ARTEMIY\13-Nov-2021\0
 \\# g4 geom=gic\\Title Card Required\\0,1\C,0,-3.3960881862,-1.1354396
 002,-0.1515805552\C,0,-2.2260336991,-0.232402035,0.0641901859\C,0,-0.9
 149207857,-0.6218095519,-0.0972072598\C,0,0.1197962983,0.327909248,0.1
 371691715\O,0,-0.0624847328,1.5037327946,0.4822661673\C,0,1.5911607031
 ,-0.1093448544,-0.0435530329\F,0,1.6974887829,-1.39207719,-0.417963927
 3\F,0,2.1815812038,0.6427378511,-0.9747975399\F,0,2.2584539848,0.04286
 90686,1.1022714075\H,0,-0.6780480719,-1.6304816278,-0.3963071492\O,0,-
 2.547310169,0.9906240606,0.4281193054\H,0,-1.6834789793,1.4905314915,0
 .5394643518\H,0,-3.9862224325,-1.2001653041,0.7685565432\H,0,-4.049951
 88,-0.7136838848,-0.922086978\H,0,-3.0812041701,-2.1352109513,-0.45112
 04136\\Version=ES64L-G16RevA.03\State=1-A\MP2/GTBas1=-641.7908809\MP4/
 GTBas1=-641.8857636\CCSD(T)/G3Bas1=-641.8742652\MP2/GTBas2=-641.836442
 3\MP4/GTBas2=-641.9352529\MP2/GTBas3=-642.2139705\MP4/GTBas3=-642.3355
 825\HF/GTLargeXP=-640.5268612\MP2/GTLargeXP=-643.0091875\HF/GFHFB1=-64
 0.5832729\HF/GFHFB2=-640.5949745\G4=-643.2968026\FreqCoord=-6.41767656
 67,-2.1456698754,-0.2864457352,-4.2065940353,-0.4391761969,0.121301871
 3,-1.7289497106,-1.1750497547,-0.1836950983,0.2263821945,0.6196586724,
 0.2592121668,-0.1180790319,2.8416431463,0.9113509753,3.0068579489,-0.2
 06631828,-0.082303304,3.2077888993,-2.6306446334,-0.7898373525,4.12259
 09936,1.2145985085,-1.8421003774,4.2678594963,0.081010799,2.0829910751
 ,-1.2813251552,-3.0811637277,-0.7489119731,-4.8137185737,1.8720081669,
 0.8090282358,-3.1813142073,2.816696299,1.0194398789,-7.5328686691,-2.2
 679837289,1.4523613779,-7.6532998709,-1.3486670817,-1.7424918514,-5.82
 26320154,-4.034963916,-0.8524940309\PG=C01 [X(C5H5F3O2)]\NImag=0\\0.51
 321707,-0.04411286,0.57482464,-0.01204881,0.01453986,0.53469475,-0.174
 20213,-0.06227079,-0.01437502,0.73498524,-0.06175744,-0.12778963,-0.01
 140974,-0.02341612,0.64133995,-0.01422351,-0.01138869,-0.08279954,-0.0
 2650919,0.12507031,0.24665326,-0.02547093,0.00493651,0.00299196,-0.345
 36350,0.03532806,0.02061249,0.67624749,-0.01918028,0.01062275,-0.00090
 457,0.07848464,-0.13700599,-0.02282551,-0.05128179,0.68628638,-0.00394
 707,-0.00181334,0.01590540,0.03302595,-0.02120160,-0.07527663,-0.03665
 079,0.17235212,0.14491235,-0.00203507,0.00161136,0.00093446,-0.0546044
 1,-0.00829420,-0.00025764,-0.21214567,-0.08947561,-0.02032891,0.582005
 02,0.00540901,-0.00263733,-0.00397140,-0.04813190,0.05425195,0.0168149
 0,-0.03692840,-0.17107084,-0.02828437,0.00002894,0.80483725,0.00202636
 ,-0.00382776,0.00927728,-0.01171882,0.01531836,0.00693897,-0.00521409,
 -0.02631432,-0.07530479,-0.01356507,0.16832041,0.26861295,0.00093904,-
 0.00269107,-0.00083873,-0.01595127,0.02575525,0.00790986,0.03810276,-0
 .02539122,-0.00798622,-0.12606149,0.05684341,0.01853081,0.13162550,-0.
 00220455,0.00191845,0.00085894,0.03865527,-0.03051232,-0.00947224,-0.0
 4877979,-0.06034997,-0.02127693,0.08349512,-0.54496365,-0.14036599,-0.
 06431041,0.64702282,-0.00069901,0.00087764,-0.00050074,0.01162418,-0.0
 0898851,-0.00566022,-0.01471727,-0.02215595,0.01415291,0.02619883,-0.1
 3936281,-0.10897628,-0.02197486,0.17731159,0.09084727,0.00116340,-0.00
 013985,-0.00022334,-0.01300261,0.00438765,0.00197032,-0.00237730,0.004
 31468,0.00186334,-0.17962846,0.00443149,0.00538044,0.00354101,0.017886
 61,0.00524758,0.58531359,-0.00123628,0.00053428,0.00127405,-0.00251360
 ,-0.00481393,-0.00297334,-0.02004158,0.01332209,0.00043271,0.01562261,
 -0.05976795,0.00230686,0.03576765,-0.03649783,-0.01358330,-0.00574778,
 0.54123822,-0.00053921,0.00123159,-0.00335298,-0.00001615,-0.00323083,
 0.00491368,-0.00512733,-0.00047043,0.01445981,0.00859785,0.00272827,-0
 .06935359,0.01039552,-0.01292566,0.00198901,-0.00449563,0.00965267,0.5
 1140408,-0.00018393,0.00000736,0.00002457,0.00307601,0.00044303,0.0000
 2090,-0.00625238,-0.00269191,-0.00056861,0.00940825,0.03043930,0.00874
 623,-0.01035224,0.00587404,0.00209647,-0.09295176,0.03699098,0.0114552
 0,0.07900133,0.00039749,-0.00001476,-0.00013353,-0.00126710,0.00110305
 ,0.00030009,0.00304498,-0.00018423,0.00006470,-0.01162205,-0.02967759,
 -0.01052575,0.01293244,-0.00282563,-0.00146076,0.04868139,-0.24521043,
 -0.05172136,-0.01991525,0.36743169,0.00013624,-0.00011766,0.00035379,-
 0.00047076,0.00023382,0.00031485,0.00108018,0.00027473,-0.00074432,-0.
 00339623,-0.01208753,0.00492249,0.00414014,-0.00120113,0.00007257,0.01
 482322,-0.05127759,-0.08773744,-0.00577395,0.08414674,0.10313455,-0.00
 062226,0.00011078,0.00098893,0.00254920,-0.00279356,-0.00272462,-0.007
 96363,0.00390097,-0.00093318,-0.01548908,-0.02805486,0.03255936,-0.000
 13114,0.00288239,-0.00230953,-0.14686341,-0.05365921,0.08386919,0.0116
 5546,-0.01646026,-0.00018554,0.13345820,-0.00008357,-0.00001526,0.0001
 8052,0.00086923,-0.00070486,-0.00040637,-0.00127411,0.00034531,-0.0006
 6093,-0.00038258,-0.00330642,0.00561515,-0.00014443,0.00607845,-0.0004
 6691,-0.05959317,-0.12707061,0.07249555,-0.02812189,-0.06987797,0.0321
 4260,0.08549966,0.18559047,0.00038083,-0.00022443,-0.00018639,-0.00059
 815,0.00197722,0.00083699,0.00453690,-0.00292728,-0.00049468,0.0131772
 7,0.01871475,-0.00905321,-0.00111481,-0.00247604,0.00232522,0.07974673
 ,0.06634741,-0.16850811,0.00093350,0.01988748,0.01281582,-0.10193380,-
 0.13124694,0.23874910,-0.00071322,0.00062528,-0.00073674,0.00273336,-0
 .00390953,0.00061385,-0.00810899,0.00281170,0.00352012,-0.01913782,-0.
 00745883,-0.04250758,0.00016404,0.00137272,0.00377895,-0.16053503,-0.0
 0284852,-0.10335280,0.01063745,-0.01622043,-0.01058890,0.02413586,0.00
 314701,0.00469710,0.15155968,0.00011183,-0.00006931,-0.00013864,0.0004
 7127,0.00037490,0.00013856,0.00121163,-0.00143084,-0.00000249,0.006458
 63,0.00603187,0.00261106,-0.00070359,0.00369656,0.00143054,-0.01044778
 ,-0.07643140,-0.01571247,-0.02629898,-0.02369067,-0.05314993,0.0075832
 2,0.00768545,0.03044289,0.02145682,0.08306287,-0.00033181,0.00023908,-
 0.00004266,0.00080299,-0.00194198,-0.00041418,-0.00391210,0.00200773,0
 .00143370,-0.01111821,-0.00894935,-0.01470442,0.00109697,0.00326815,0.
 00439530,-0.10311146,-0.01008200,-0.20555257,-0.01798739,-0.04169816,-
 0.03234659,-0.00957286,0.02190215,-0.07598062,0.14420920,0.03404382,0.
 32321052,0.00062215,0.00095450,0.00008680,-0.00175743,0.02951433,0.008
 39804,-0.06842537,0.05977424,0.01889101,0.01280905,-0.01974209,-0.0063
 2225,-0.00471431,-0.00534746,-0.00113197,0.00065554,-0.00324307,-0.000
 97942,-0.00361790,0.00233543,0.00079133,0.00015374,0.00070111,-0.00024
 383,0.00015179,0.00046420,0.00054418,0.07199566,-0.00072743,-0.0002272
 6,0.00121882,-0.00116415,-0.00580303,-0.00041351,0.06038860,-0.3145782
 3,-0.08605775,0.00876321,-0.01404263,-0.00312518,-0.00330576,-0.000744
 37,-0.00184901,0.00020179,-0.00268062,-0.00063769,0.00242268,0.0018238
 3,0.00058494,-0.00018897,0.00032811,0.00000609,0.00005154,0.00029166,0
 .00035967,-0.06537398,0.33141307,-0.00039701,0.00115568,-0.00402104,-0
 .00042618,-0.00156896,-0.00464737,0.01906696,-0.08603352,-0.04882019,0
 .00187802,-0.00205524,-0.00498257,-0.00054400,-0.00177149,0.00562317,0
 .00001414,-0.00050602,-0.00064135,0.00081455,0.00058672,-0.00038675,0.
 00035759,0.00027821,-0.00028722,-0.00043301,0.00003906,-0.00025326,-0.
 02068372,0.09144231,0.04920852,0.01242331,-0.03504029,-0.01040948,-0.1
 4662360,0.05456811,0.01879863,-0.00345050,0.04735381,0.01448837,-0.000
 11853,-0.01308099,-0.00392575,-0.04486580,0.00385734,0.00301249,0.0048
 4353,0.00099834,0.00008509,-0.00219734,0.00167253,0.00055503,-0.001194
 46,-0.00017425,0.00040173,-0.00123123,0.00004030,-0.00034789,-0.005403
 46,0.00021481,0.00063390,0.45574004,-0.00133364,-0.04199349,-0.0130911
 1,0.06015474,-0.33289928,-0.07955840,0.06397927,-0.02234856,-0.0144656
 5,-0.02159853,-0.05056258,-0.01244468,-0.03440711,0.03769624,0.0104860
 7,-0.00551446,-0.00146029,-0.00004177,0.00067772,0.00189524,0.00059673
 ,0.00171166,0.00106132,-0.00092501,0.00183937,0.00045331,0.00119122,0.
 00196807,0.00314747,-0.00198918,0.04276980,0.51325718,-0.00071283,-0.0
 1182354,0.00031387,0.02040416,-0.07934852,-0.08781773,0.01927281,-0.01
 384204,0.01485791,-0.00637807,-0.01276197,-0.00792216,-0.00799402,0.00
 904625,0.00865519,-0.00179157,-0.00028495,-0.00061613,0.00026735,0.000
 55677,-0.00010730,0.00063368,0.00030261,-0.00022015,0.00048363,0.00010
 272,0.00041862,0.00113912,-0.00192431,0.00921089,-0.00272763,0.1299442
 6,0.09347954,0.00007168,0.00642113,0.00201761,0.03827239,-0.03404924,-
 0.01113270,-0.03171479,-0.00243527,0.00033093,0.00535371,0.05481576,0.
 01562595,0.02743212,-0.03283216,-0.01096400,-0.00065265,0.00043799,0.0
 0026600,0.00191874,-0.00375989,-0.00116629,0.00063576,-0.00039687,-0.0
 0019990,0.00067770,-0.00041760,-0.00008552,-0.00203024,-0.00097230,-0.
 00023805,-0.26741431,-0.10889064,-0.02234672,0.22791380,0.00341271,-0.
 00276195,-0.00225342,-0.03039674,-0.04801567,-0.01345552,-0.00815652,-
 0.00132960,0.00116154,0.01507289,0.00929195,0.00167428,0.00019130,-0.0
 2025284,-0.00213394,0.00094084,-0.00067125,-0.00111500,0.00031584,-0.0
 0109298,-0.00025769,-0.00029622,-0.00012340,0.00029640,-0.00058335,-0.
 00004360,-0.00026130,-0.00111947,0.00003840,0.00031645,-0.09923942,-0.
 10664981,-0.01873068,0.12098570,0.17144150,0.00115263,-0.00236564,0.00
 389851,-0.01008116,-0.01331693,-0.00072496,-0.00131544,0.00094608,-0.0
 0397718,0.00419165,0.00017829,0.00139971,-0.00146247,-0.00089121,-0.01
 306695,0.00041085,-0.00109587,0.00275174,0.00000890,-0.00010263,-0.000
 27220,-0.00061697,-0.00014295,-0.00001650,0.00030954,0.00017395,-0.000
 13393,-0.00028025,0.00031105,-0.00081533,-0.01957128,-0.01836924,-0.03
 312128,0.02751588,0.03501073,0.04297269,-0.11682190,-0.00938185,0.1218
 9417,-0.02016029,-0.00227619,0.02428058,-0.00166873,-0.00271095,-0.002
 46605,-0.00037774,0.00143413,-0.00148368,0.00035167,-0.00058063,-0.000
 01817,0.00029457,-0.00043525,0.00059087,-0.00009258,0.00006039,-0.0000
 6729,-0.00031658,-0.00005472,0.00011235,-0.00006625,0.00005517,-0.0001
 3666,0.00017113,-0.00032240,0.00070496,0.00255107,0.00224033,-0.000459
 78,-0.00083696,0.00019841,-0.00073096,0.13107799,-0.00983135,-0.047755
 59,0.01128876,-0.00955042,-0.00149748,0.01946715,-0.00148826,-0.001303
 33,-0.00141274,0.00014940,0.00117367,-0.00032176,0.00015134,-0.0004391
 6,-0.00022977,0.00028044,-0.00025428,0.00020060,-0.00006017,0.00007832
 ,0.00001260,-0.00019933,-0.00003547,0.00008357,-0.00005220,0.00002992,
 -0.00003931,-0.00012661,0.00015843,0.00000690,0.00081777,0.00074273,-0
 .00123178,-0.00034434,0.00025453,-0.00048154,0.01158585,0.04625619,0.1
 2073949,0.01108390,-0.23186323,-0.00249513,-0.00044778,0.00554824,-0.0
 0095629,0.00009942,-0.00048796,-0.00023022,0.00010586,-0.00050589,-0.0
 0015698,0.00005293,0.00004210,0.00003394,-0.00012678,0.00012079,-0.000
 00313,0.00004439,0.00000222,-0.00007310,-0.00000207,0.00002831,0.00004
 439,0.00001587,0.00001238,-0.00013722,-0.00000331,0.00011834,-0.000209
 11,0.00002453,0.00043828,0.00017435,0.00026610,0.00010242,-0.13188130,
 -0.01326502,0.25211946,-0.13459382,0.06131614,-0.11368156,-0.02180076,
 0.01053141,-0.02026247,-0.00150773,-0.00365379,0.00073293,-0.00022707,
 0.00044815,0.00201786,0.00035381,-0.00050761,-0.00031762,0.00024736,-0
 .00004807,-0.00074255,-0.00008700,0.00001200,0.00009415,-0.00005992,-0
 .00002862,0.00015029,-0.00032254,0.00000673,-0.00010212,0.00012267,0.0
 0010279,-0.00076818,0.00264961,0.00168356,0.00144809,-0.00079634,-0.00
 025661,0.00078710,0.01084367,-0.00677945,0.01270784,0.15042119,0.06031
 037,-0.08734391,0.07164685,-0.01120999,0.00906415,-0.01697008,-0.00171
 501,-0.00177214,0.00080983,0.00005825,0.00061147,0.00105521,0.00005677
 ,-0.00039212,-0.00004659,0.00023811,-0.00011099,-0.00038027,-0.0000531
 7,0.00008144,0.00004324,-0.00001944,0.00001340,0.00004505,-0.00022020,
 0.00001542,-0.00007694,-0.00017947,0.00014723,0.00000920,0.00070212,0.
 00016007,0.00101352,-0.00018292,0.00010605,0.00051732,0.00131193,-0.00
 121083,0.00094845,-0.06510594,0.08995264,-0.11294670,0.07179582,-0.174
 50938,-0.00183509,0.00185150,-0.00337216,0.00013272,-0.00058342,-0.000
 18050,0.00028327,0.00056486,-0.00009406,0.00019417,-0.00028056,-0.0000
 0718,0.00010214,-0.00001543,0.00002525,-0.00002350,0.00000449,-0.00000
 651,-0.00005904,-0.00001401,0.00002187,-0.00002314,-0.00000495,-0.0000
 1616,0.00004897,0.00001628,0.00017811,0.00050571,-0.00033311,0.0009233
 5,-0.00025318,-0.00024770,0.00020993,-0.01671408,0.01089486,-0.0196523
 6,0.12350398,-0.08012247,0.18908379,-0.07379338,0.07765366,0.02337521,
 0.01184980,-0.02403156,-0.00749455,0.00009926,0.00018077,0.00002817,0.
 00024931,-0.00045310,-0.00014975,-0.00043370,0.00053912,0.00017395,-0.
 00004776,-0.00004422,-0.00000660,0.00003789,0.00010833,0.00002866,0.00
 005225,0.00003720,-0.00004619,0.00005520,0.00000815,0.00005268,-0.0007
 3300,-0.00009041,0.00002005,-0.00570833,-0.00528015,-0.00123823,0.0011
 6939,-0.00106936,-0.00031801,-0.00494906,0.01544734,0.00244247,-0.0052
 4312,0.01600860,0.00708380,0.07739525,0.07082600,-0.27729162,-0.069105
 40,0.01128566,-0.01709182,-0.00432737,0.00077642,0.00079720,0.00035489
 ,0.00011255,-0.00016918,0.00002410,-0.00074457,0.00056536,0.00017172,0
 .00008005,-0.00012502,-0.00007319,-0.00002958,0.00016068,0.00005612,-0
 .00001682,0.00003149,-0.00000117,-0.00001137,0.00002385,0.00003723,-0.
 00057975,0.00072795,0.00008988,-0.00545996,-0.00249957,-0.00101834,0.0
 0162063,-0.00019132,-0.00037142,-0.00112422,0.00380236,0.00120351,0.00
 227932,-0.00932187,-0.00352615,-0.07901436,0.30058150,0.02141043,-0.06
 936253,-0.06716763,0.00266838,-0.00299637,-0.00449322,0.00019930,0.000
 37696,-0.00043583,0.00001301,0.00004533,-0.00025443,-0.00019539,0.0001
 2339,0.00010862,0.00002930,-0.00006841,0.00009781,-0.00001108,0.000050
 81,-0.00001517,-0.00000010,0.00002340,-0.00003042,-0.00001458,0.000010
 01,-0.00002614,-0.00012078,0.00007159,0.00051607,-0.00128979,-0.001024
 66,0.00150710,0.00045564,-0.00027026,0.00079331,0.00637506,-0.02497253
 ,-0.00602310,-0.00556774,0.02150768,0.00739603,-0.02395164,0.07648560,
 0.06802699\\0.00000138,-0.00000026,-0.00000498,0.00000874,-0.00002207,
 0.00000335,-0.00000248,0.00001083,0.00000111,-0.00001169,-0.00000084,-
 0.00001224,0.00000961,-0.00000410,-0.00000131,-0.00000030,0.00000046,0
 .00004357,0.00000185,-0.00000107,-0.00000603,0.00000396,0.00000432,-0.
 00001302,-0.00000561,-0.00000363,-0.00001545,-0.00000079,-0.00000065,-
 0.00000013,0.00000114,0.00001652,0.00000058,-0.00000407,-0.00000502,0.
 00000141,0.00000104,0.00000214,0.00000003,-0.00000077,0.00000079,0.000
 00163,-0.00000202,0.00000257,0.00000148\\\@
 Job cpu time:       0 days  8 hours 57 minutes 10.4 seconds.
 Elapsed time:       0 days  2 hours 14 minutes 24.7 seconds.
 File lengths (MBytes):  RWF=  62742 Int=      0 D2E=      0 Chk=     85 Scr=      1
 Normal termination of Gaussian 16 at Sat Nov 13 19:20:44 2021.
