 Entering Gaussian System, Link 0=/home/artemiy/opt/gaussian/g16/g16
 Input=1,1,1,5,5,5-Hexafluoro-2,4-pentanedione_enol_B3LYP.gjf
 Output=1,1,1,5,5,5-Hexafluoro-2,4-pentanedione_enol_B3LYP.log
 Initial command:
 /home/artemiy/opt/gaussian/g16/l1.exe "/home/artemiy/opt/gaussian/scr/Gau-1816.inp" -scrdir="/home/artemiy/opt/gaussian/scr/"
 Entering Link 1 = /home/artemiy/opt/gaussian/g16/l1.exe PID=      1818.
  
 Copyright (c) 1988,1990,1992,1993,1995,1998,2003,2009,2016,
            Gaussian, Inc.  All Rights Reserved.
  
 This is part of the Gaussian(R) 16 program.  It is based on
 the Gaussian(R) 09 system (copyright 2009, Gaussian, Inc.),
 the Gaussian(R) 03 system (copyright 2003, Gaussian, Inc.),
 the Gaussian(R) 98 system (copyright 1998, Gaussian, Inc.),
 the Gaussian(R) 94 system (copyright 1995, Gaussian, Inc.),
 the Gaussian 92(TM) system (copyright 1992, Gaussian, Inc.),
 the Gaussian 90(TM) system (copyright 1990, Gaussian, Inc.),
 the Gaussian 88(TM) system (copyright 1988, Gaussian, Inc.),
 the Gaussian 86(TM) system (copyright 1986, Carnegie Mellon
 University), and the Gaussian 82(TM) system (copyright 1983,
 Carnegie Mellon University). Gaussian is a federally registered
 trademark of Gaussian, Inc.
  
 This software contains proprietary and confidential information,
 including trade secrets, belonging to Gaussian, Inc.
  
 This software is provided under written license and may be
 used, copied, transmitted, or stored only in accord with that
 written license.
  
 The following legend is applicable only to US Government
 contracts under FAR:
  
                    RESTRICTED RIGHTS LEGEND
  
 Use, reproduction and disclosure by the US Government is
 subject to restrictions as set forth in subparagraphs (a)
 and (c) of the Commercial Computer Software - Restricted
 Rights clause in FAR 52.227-19.
  
 Gaussian, Inc.
 340 Quinnipiac St., Bldg. 40, Wallingford CT 06492
  
  
 ---------------------------------------------------------------
 Warning -- This program may not be used in any manner that
 competes with the business of Gaussian, Inc. or will provide
 assistance to any competitor of Gaussian, Inc.  The licensee
 of this program is prohibited from giving any competitor of
 Gaussian, Inc. access to this program.  By using this program,
 the user acknowledges that Gaussian, Inc. is engaged in the
 business of creating and licensing software in the field of
 computational chemistry and represents and warrants to the
 licensee that it is not a competitor of Gaussian, Inc. and that
 it will not use this program in any manner prohibited above.
 ---------------------------------------------------------------
  

 Cite this work as:
 Gaussian 16, Revision A.03,
 M. J. Frisch, G. W. Trucks, H. B. Schlegel, G. E. Scuseria, 
 M. A. Robb, J. R. Cheeseman, G. Scalmani, V. Barone, 
 G. A. Petersson, H. Nakatsuji, X. Li, M. Caricato, A. V. Marenich, 
 J. Bloino, B. G. Janesko, R. Gomperts, B. Mennucci, H. P. Hratchian, 
 J. V. Ortiz, A. F. Izmaylov, J. L. Sonnenberg, D. Williams-Young, 
 F. Ding, F. Lipparini, F. Egidi, J. Goings, B. Peng, A. Petrone, 
 T. Henderson, D. Ranasinghe, V. G. Zakrzewski, J. Gao, N. Rega, 
 G. Zheng, W. Liang, M. Hada, M. Ehara, K. Toyota, R. Fukuda, 
 J. Hasegawa, M. Ishida, T. Nakajima, Y. Honda, O. Kitao, H. Nakai, 
 T. Vreven, K. Throssell, J. A. Montgomery, Jr., J. E. Peralta, 
 F. Ogliaro, M. J. Bearpark, J. J. Heyd, E. N. Brothers, K. N. Kudin, 
 V. N. Staroverov, T. A. Keith, R. Kobayashi, J. Normand, 
 K. Raghavachari, A. P. Rendell, J. C. Burant, S. S. Iyengar, 
 J. Tomasi, M. Cossi, J. M. Millam, M. Klene, C. Adamo, R. Cammi, 
 J. W. Ochterski, R. L. Martin, K. Morokuma, O. Farkas, 
 J. B. Foresman, and D. J. Fox, Gaussian, Inc., Wallingford CT, 2016.
 
 ******************************************
 Gaussian 16:  ES64L-G16RevA.03 25-Dec-2016
                26-Nov-2021 
 ******************************************
 %mem=47GB
 %nprocshared=7
 Will use up to    7 processors via shared memory.
 ----------------------------------------------------------------------
 # opt=(tight) freq B3LYP/6-311++G(3df,3pd) nosymm int=ultrafinegrid sc
 f=(tight,ssd,noincfock,xqc,fdiag,novaracc)
 ----------------------------------------------------------------------
 1/7=10,18=20,19=15,26=4,38=1/1,3;
 2/9=110,12=2,15=1,17=6,18=5,40=1/2;
 3/5=4,6=6,7=1616,11=2,25=1,30=1,71=1,74=-5,75=-5/1,2,3;
 4//1;
 5/5=100002,16=1,32=2,38=1/2;
 6/7=2,8=2,9=2,10=2,28=1/1;
 7/30=1/1,2,3,16;
 1/7=10,18=20,19=15,26=4/3(2);
 2/9=110,15=1/2;
 99//99;
 2/9=110,15=1/2;
 3/5=4,6=6,7=1616,11=2,25=1,30=1,71=1,74=-5,75=-5/1,2,3;
 4/5=5,16=3,69=1/1;
 5/5=100002,16=1,32=2,38=1/2;
 7/30=1/1,2,3,16;
 1/7=10,18=20,19=15,26=4/3(-5);
 2/9=110,15=1/2;
 6/7=2,8=2,9=2,10=2,19=2,28=1/1;
 99/9=1/99;
 -------------------
 CAS 1522-22-1
 -------------------
 Symbolic Z-matrix:
 Charge =  0 Multiplicity = 1
 C                     2.49858   0.29125  -0.00004 
 F                     3.22811  -0.01159  -1.07499 
 F                     3.22528  -0.00739   1.07805 
 F                     2.31641   1.61333  -0.00282 
 C                     1.17139  -0.46894  -0.00019 
 C                    -0.01751   0.18922  -0.00028 
 C                    -1.23024  -0.58454  -0.00021 
 O                    -1.28949  -1.79999  -0.00009 
 C                    -2.52467   0.26643  -0.00004 
 F                    -2.56747   1.06261   1.07854 
 F                    -2.56561   1.06631  -1.07594 
 F                    -3.6242   -0.47581  -0.00227 
 H                    -0.06459   1.26407  -0.00046 
 O                     1.32799  -1.76634   0. 
 H                     0.43802  -2.21163   0.00005 
 

 GradGradGradGradGradGradGradGradGradGradGradGradGradGradGradGradGradGrad
 Berny optimization.
 Initialization pass.
                           ----------------------------
                           !    Initial Parameters    !
                           ! (Angstroms and Degrees)  !
 --------------------------                            --------------------------
 ! Name  Definition              Value          Derivative Info.                !
 --------------------------------------------------------------------------------
 ! R1    R(1,2)                  1.334          estimate D2E/DX2                !
 ! R2    R(1,3)                  1.334          estimate D2E/DX2                !
 ! R3    R(1,4)                  1.3346         estimate D2E/DX2                !
 ! R4    R(1,5)                  1.5295         estimate D2E/DX2                !
 ! R5    R(5,6)                  1.3589         estimate D2E/DX2                !
 ! R6    R(5,14)                 1.3068         estimate D2E/DX2                !
 ! R7    R(6,7)                  1.4385         estimate D2E/DX2                !
 ! R8    R(6,13)                 1.0759         estimate D2E/DX2                !
 ! R9    R(7,8)                  1.2169         estimate D2E/DX2                !
 ! R10   R(7,9)                  1.5491         estimate D2E/DX2                !
 ! R11   R(9,10)                 1.3413         estimate D2E/DX2                !
 ! R12   R(9,11)                 1.3413         estimate D2E/DX2                !
 ! R13   R(9,12)                 1.3266         estimate D2E/DX2                !
 ! R14   R(14,15)                0.9952         estimate D2E/DX2                !
 ! A1    A(2,1,3)              107.6079         estimate D2E/DX2                !
 ! A2    A(2,1,4)              107.33           estimate D2E/DX2                !
 ! A3    A(2,1,5)              111.2013         estimate D2E/DX2                !
 ! A4    A(3,1,4)              107.3267         estimate D2E/DX2                !
 ! A5    A(3,1,5)              111.1928         estimate D2E/DX2                !
 ! A6    A(4,1,5)              111.9576         estimate D2E/DX2                !
 ! A7    A(1,5,6)              121.2286         estimate D2E/DX2                !
 ! A8    A(1,5,14)             112.921          estimate D2E/DX2                !
 ! A9    A(6,5,14)             125.8503         estimate D2E/DX2                !
 ! A10   A(5,6,7)              118.4928         estimate D2E/DX2                !
 ! A11   A(5,6,13)             121.4765         estimate D2E/DX2                !
 ! A12   A(7,6,13)             120.0307         estimate D2E/DX2                !
 ! A13   A(6,7,8)              125.3297         estimate D2E/DX2                !
 ! A14   A(6,7,9)              114.1395         estimate D2E/DX2                !
 ! A15   A(8,7,9)              120.5309         estimate D2E/DX2                !
 ! A16   A(7,9,10)             110.661          estimate D2E/DX2                !
 ! A17   A(7,9,11)             110.6716         estimate D2E/DX2                !
 ! A18   A(7,9,12)             112.6569         estimate D2E/DX2                !
 ! A19   A(10,9,11)            106.8622         estimate D2E/DX2                !
 ! A20   A(10,9,12)            107.8799         estimate D2E/DX2                !
 ! A21   A(11,9,12)            107.879          estimate D2E/DX2                !
 ! A22   A(5,14,15)            109.6987         estimate D2E/DX2                !
 ! D1    D(2,1,5,6)           -120.1875         estimate D2E/DX2                !
 ! D2    D(2,1,5,14)            59.8227         estimate D2E/DX2                !
 ! D3    D(3,1,5,6)            119.9185         estimate D2E/DX2                !
 ! D4    D(3,1,5,14)           -60.0713         estimate D2E/DX2                !
 ! D5    D(4,1,5,6)             -0.1295         estimate D2E/DX2                !
 ! D6    D(4,1,5,14)           179.8807         estimate D2E/DX2                !
 ! D7    D(1,5,6,7)           -179.9906         estimate D2E/DX2                !
 ! D8    D(1,5,6,13)             0.0125         estimate D2E/DX2                !
 ! D9    D(14,5,6,7)            -0.0022         estimate D2E/DX2                !
 ! D10   D(14,5,6,13)         -179.9991         estimate D2E/DX2                !
 ! D11   D(1,5,14,15)          179.9906         estimate D2E/DX2                !
 ! D12   D(6,5,14,15)            0.0014         estimate D2E/DX2                !
 ! D13   D(5,6,7,8)             -0.0011         estimate D2E/DX2                !
 ! D14   D(5,6,7,9)            179.988          estimate D2E/DX2                !
 ! D15   D(13,6,7,8)           179.9958         estimate D2E/DX2                !
 ! D16   D(13,6,7,9)            -0.0151         estimate D2E/DX2                !
 ! D17   D(6,7,9,10)           -59.2455         estimate D2E/DX2                !
 ! D18   D(6,7,9,11)            59.0239         estimate D2E/DX2                !
 ! D19   D(6,7,9,12)           179.8924         estimate D2E/DX2                !
 ! D20   D(8,7,9,10)           120.7442         estimate D2E/DX2                !
 ! D21   D(8,7,9,11)          -120.9864         estimate D2E/DX2                !
 ! D22   D(8,7,9,12)            -0.1178         estimate D2E/DX2                !
 --------------------------------------------------------------------------------
 Trust Radius=3.00D-01 FncErr=1.00D-07 GrdErr=1.00D-06 EigMax=2.50D+02 EigMin=1.00D-04
 Number of steps in this run=     68 maximum allowed number of steps=    100.
 GradGradGradGradGradGradGradGradGradGradGradGradGradGradGradGradGradGrad

                          Input orientation:                          
 ---------------------------------------------------------------------
 Center     Atomic      Atomic             Coordinates (Angstroms)
 Number     Number       Type             X           Y           Z
 ---------------------------------------------------------------------
      1          6           0        2.498584    0.291254   -0.000042
      2          9           0        3.228114   -0.011587   -1.074986
      3          9           0        3.225284   -0.007395    1.078054
      4          9           0        2.316410    1.613327   -0.002819
      5          6           0        1.171392   -0.468936   -0.000189
      6          6           0       -0.017506    0.189217   -0.000284
      7          6           0       -1.230239   -0.584541   -0.000214
      8          8           0       -1.289485   -1.799989   -0.000094
      9          6           0       -2.524667    0.266434   -0.000037
     10          9           0       -2.567470    1.062612    1.078545
     11          9           0       -2.565607    1.066307   -1.075937
     12          9           0       -3.624203   -0.475814   -0.002275
     13          1           0       -0.064592    1.264072   -0.000459
     14          8           0        1.327985   -1.766336    0.000004
     15          1           0        0.438019   -2.211626    0.000050
 ---------------------------------------------------------------------
                    Distance matrix (angstroms):
                    1          2          3          4          5
     1  C    0.000000
     2  F    1.333954   0.000000
     3  F    1.334007   2.153047   0.000000
     4  F    1.334568   2.149672   2.149669   0.000000
     5  C    1.529486   2.365261   2.365186   2.376319   0.000000
     6  C    2.518158   3.424814   3.423033   2.734092   1.358912
     7  C    3.830292   4.621723   4.620330   4.172452   2.404412
     8  O    4.326981   4.976191   4.975836   4.965200   2.797789
     9  C    5.023312   5.858950   5.856552   5.024953   3.768503
    10  F    5.236721   6.275380   5.890748   5.032387   4.181912
    11  F    5.234911   5.893137   6.271120   5.028410   4.180833
    12  F    6.170650   6.951292   6.949964   6.297253   4.795600
    13  H    2.741577   3.691047   3.688239   2.406482   2.128608
    14  O    2.367272   2.800935   2.802822   3.521237   1.306817
    15  H    3.241965   3.712211   3.713432   4.261294   1.890716
                    6          7          8          9         10
     6  C    0.000000
     7  C    1.438549   0.000000
     8  O    2.361117   1.216891   0.000000
     9  C    2.508350   1.549097   2.407442   0.000000
    10  F    2.903275   2.380130   3.315297   1.341294   0.000000
    11  F    2.901575   2.380271   3.316863   1.341281   2.154486
    12  F    3.667497   2.396433   2.684092   1.326619   2.156759
    13  H    1.075886   2.185430   3.299824   2.654666   2.732990
    14  O    2.373717   2.818005   2.617687   4.356040   4.933637
    15  H    2.443676   2.330341   1.775870   3.862420   4.573483
                   11         12         13         14         15
    11  F    0.000000
    12  F    2.156737   0.000000
    13  H    2.729623   3.962075   0.000000
    14  O    4.933719   5.117580   3.335063   0.000000
    15  H    4.574316   4.417544   3.511851   0.995150   0.000000
 Symmetry turned off by external request.
 Stoichiometry    C5H2F6O2
 Framework group  C1[X(C5H2F6O2)]
 Deg. of freedom    39
 Full point group                 C1      NOp   1
 Rotational constants (GHZ):           1.6721101           0.3809748           0.3479312
 Standard basis: 6-311++G(3df,3pd) (5D, 7F)
   543 basis functions,   796 primitive gaussians,   623 cartesian basis functions
    51 alpha electrons       51 beta electrons
       nuclear repulsion energy       884.4090484079 Hartrees.
 NAtoms=   15 NActive=   15 NUniq=   15 SFac= 1.00D+00 NAtFMM=   60 NAOKFM=F Big=F
 Integral buffers will be    131072 words long.
 Raffenetti 2 integral format.
 Two-electron integral symmetry is turned off.
 One-electron integrals computed using PRISM.
 NBasis=   543 RedAO= T EigKep=  3.55D-06  NBF=   543
 NBsUse=   543 1.00D-06 EigRej= -1.00D+00 NBFU=   543
 ExpMin= 3.60D-02 ExpMax= 1.14D+04 ExpMxC= 1.72D+03 IAcc=3 IRadAn=         5 AccDes= 0.00D+00
 Harris functional with IExCor=  402 and IRadAn=       5 diagonalized for initial guess.
 HarFok:  IExCor=  402 AccDes= 0.00D+00 IRadAn=         5 IDoV= 1 UseB2=F ITyADJ=14
 ICtDFT=  3500011 ScaDFX=  1.000000  1.000000  1.000000  1.000000
 FoFCou: FMM=F IPFlag=           0 FMFlag=      100000 FMFlg1=           0
         NFxFlg=           0 DoJE=T BraDBF=F KetDBF=T FulRan=T
         wScrn=  0.000000 ICntrl=       500 IOpCl=  0 I1Cent=   200000004 NGrid=           0
         NMat0=    1 NMatS0=      1 NMatT0=    0 NMatD0=    1 NMtDS0=    0 NMtDT0=    0
 Symmetry not used in FoFCou.
 Requested convergence on RMS density matrix=1.00D-08 within 128 cycles.
 Requested convergence on MAX density matrix=1.00D-06.
 Requested convergence on             energy=1.00D-06.
 No special actions if energy rises.
 SCF Done:  E(RB3LYP) =  -941.587128493     A.U. after   13 cycles
            NFock= 13  Conv=0.56D-08     -V/T= 2.0031

 **********************************************************************

            Population analysis using the SCF density.

 **********************************************************************

 Alpha  occ. eigenvalues --  -24.74698 -24.74331 -24.74330 -24.74171 -24.74169
 Alpha  occ. eigenvalues --  -24.73868 -19.22017 -19.17805 -10.46302 -10.45122
 Alpha  occ. eigenvalues --  -10.32329 -10.32161 -10.22574  -1.35712  -1.35077
 Alpha  occ. eigenvalues --   -1.26616  -1.26360  -1.26031  -1.25963  -1.14685
 Alpha  occ. eigenvalues --   -1.10682  -0.85690  -0.79544  -0.75597  -0.69833
 Alpha  occ. eigenvalues --   -0.67438  -0.63674  -0.63289  -0.62819  -0.62723
 Alpha  occ. eigenvalues --   -0.61529  -0.57299  -0.54465  -0.51842  -0.51189
 Alpha  occ. eigenvalues --   -0.50573  -0.50511  -0.50008  -0.48987  -0.47294
 Alpha  occ. eigenvalues --   -0.47144  -0.46431  -0.45775  -0.45104  -0.44869
 Alpha  occ. eigenvalues --   -0.44666  -0.44341  -0.43689  -0.42147  -0.32426
 Alpha  occ. eigenvalues --   -0.30883
 Alpha virt. eigenvalues --   -0.12138  -0.01386  -0.00445   0.00799   0.02265
 Alpha virt. eigenvalues --    0.03370   0.04352   0.04666   0.05513   0.06031
 Alpha virt. eigenvalues --    0.06962   0.07130   0.08072   0.08534   0.10580
 Alpha virt. eigenvalues --    0.10707   0.10760   0.11090   0.12237   0.12630
 Alpha virt. eigenvalues --    0.13062   0.13828   0.14614   0.15902   0.16019
 Alpha virt. eigenvalues --    0.16267   0.17714   0.18824   0.19301   0.19832
 Alpha virt. eigenvalues --    0.20342   0.20706   0.21382   0.21718   0.22560
 Alpha virt. eigenvalues --    0.23959   0.24496   0.24764   0.25056   0.25359
 Alpha virt. eigenvalues --    0.26061   0.26571   0.26996   0.27548   0.28731
 Alpha virt. eigenvalues --    0.30343   0.30854   0.30878   0.31953   0.32517
 Alpha virt. eigenvalues --    0.32689   0.33164   0.33340   0.34029   0.34770
 Alpha virt. eigenvalues --    0.35021   0.35723   0.36642   0.36943   0.37601
 Alpha virt. eigenvalues --    0.38203   0.38778   0.39353   0.40148   0.40772
 Alpha virt. eigenvalues --    0.41934   0.42475   0.43504   0.43839   0.44556
 Alpha virt. eigenvalues --    0.44987   0.45412   0.46405   0.48661   0.50180
 Alpha virt. eigenvalues --    0.51131   0.51798   0.52260   0.53594   0.54262
 Alpha virt. eigenvalues --    0.56428   0.57461   0.57853   0.60052   0.60460
 Alpha virt. eigenvalues --    0.61140   0.63000   0.63685   0.66007   0.67339
 Alpha virt. eigenvalues --    0.67543   0.68872   0.70389   0.71954   0.72175
 Alpha virt. eigenvalues --    0.73299   0.73671   0.74538   0.75423   0.76618
 Alpha virt. eigenvalues --    0.78321   0.79377   0.82217   0.83200   0.83524
 Alpha virt. eigenvalues --    0.84815   0.88425   0.88929   0.90688   0.93721
 Alpha virt. eigenvalues --    0.95358   0.97655   0.98207   0.99565   0.99616
 Alpha virt. eigenvalues --    1.01292   1.03870   1.06789   1.07289   1.07554
 Alpha virt. eigenvalues --    1.09299   1.09697   1.12884   1.15208   1.15532
 Alpha virt. eigenvalues --    1.17021   1.17809   1.17985   1.18610   1.20521
 Alpha virt. eigenvalues --    1.21664   1.22431   1.24153   1.24256   1.24701
 Alpha virt. eigenvalues --    1.25655   1.26282   1.26651   1.27600   1.28741
 Alpha virt. eigenvalues --    1.29718   1.30619   1.31408   1.32093   1.32306
 Alpha virt. eigenvalues --    1.32328   1.33393   1.33718   1.34583   1.35353
 Alpha virt. eigenvalues --    1.37750   1.38143   1.38452   1.39827   1.40192
 Alpha virt. eigenvalues --    1.40661   1.41178   1.41699   1.43185   1.43429
 Alpha virt. eigenvalues --    1.44108   1.46197   1.47208   1.48448   1.51632
 Alpha virt. eigenvalues --    1.54704   1.55638   1.57654   1.57879   1.60271
 Alpha virt. eigenvalues --    1.60945   1.61927   1.62099   1.63599   1.64822
 Alpha virt. eigenvalues --    1.65778   1.67664   1.68872   1.69392   1.70357
 Alpha virt. eigenvalues --    1.71315   1.74413   1.75730   1.78327   1.79145
 Alpha virt. eigenvalues --    1.79295   1.82295   1.83957   1.85630   1.88392
 Alpha virt. eigenvalues --    1.89800   1.92582   1.94093   1.95723   2.00273
 Alpha virt. eigenvalues --    2.01223   2.02068   2.03263   2.05843   2.08532
 Alpha virt. eigenvalues --    2.11549   2.12437   2.14116   2.17031   2.18143
 Alpha virt. eigenvalues --    2.18514   2.20850   2.27309   2.28737   2.29934
 Alpha virt. eigenvalues --    2.33529   2.35590   2.36674   2.40407   2.44796
 Alpha virt. eigenvalues --    2.50014   2.51002   2.56450   2.57506   2.61795
 Alpha virt. eigenvalues --    2.62022   2.64235   2.66549   2.72592   2.74345
 Alpha virt. eigenvalues --    2.74879   2.77607   2.79141   2.81880   2.83134
 Alpha virt. eigenvalues --    2.86554   2.91227   2.92020   2.93683   2.94563
 Alpha virt. eigenvalues --    2.97602   3.00106   3.03706   3.06472   3.08181
 Alpha virt. eigenvalues --    3.10296   3.12250   3.16656   3.17854   3.19175
 Alpha virt. eigenvalues --    3.19492   3.20487   3.21256   3.21682   3.22830
 Alpha virt. eigenvalues --    3.23652   3.30635   3.33680   3.38606   3.39261
 Alpha virt. eigenvalues --    3.40925   3.43490   3.46032   3.49681   3.51773
 Alpha virt. eigenvalues --    3.52104   3.53180   3.54509   3.55294   3.56093
 Alpha virt. eigenvalues --    3.60910   3.61968   3.63365   3.65334   3.67701
 Alpha virt. eigenvalues --    3.71777   3.78076   3.78569   3.85204   3.87158
 Alpha virt. eigenvalues --    3.89465   3.97945   3.99420   4.05811   4.10628
 Alpha virt. eigenvalues --    4.12072   4.14963   4.16564   4.22806   4.30062
 Alpha virt. eigenvalues --    4.33911   4.42653   4.51521   4.52149   4.59201
 Alpha virt. eigenvalues --    4.60046   4.60250   4.61570   4.62819   4.63642
 Alpha virt. eigenvalues --    4.64778   4.66387   4.66912   4.68293   4.68640
 Alpha virt. eigenvalues --    4.69895   4.70238   4.70908   4.72499   4.72513
 Alpha virt. eigenvalues --    4.73426   4.74473   4.76527   4.78612   4.79412
 Alpha virt. eigenvalues --    4.81710   4.85994   4.87414   4.87866   4.91224
 Alpha virt. eigenvalues --    4.91443   4.92046   4.94324   5.03800   5.06479
 Alpha virt. eigenvalues --    5.11613   5.12355   5.12863   5.13333   5.15848
 Alpha virt. eigenvalues --    5.17106   5.23357   5.26009   5.27625   5.38095
 Alpha virt. eigenvalues --    5.42079   5.44124   5.50902   5.51473   5.58579
 Alpha virt. eigenvalues --    5.63828   5.66697   5.76234   5.80705   6.00424
 Alpha virt. eigenvalues --    6.00579   6.21460   6.27180   6.34451   6.35229
 Alpha virt. eigenvalues --    6.42113   6.44036   6.44597   6.46695   6.48146
 Alpha virt. eigenvalues --    6.49168   6.49286   6.50586   6.50767   6.50881
 Alpha virt. eigenvalues --    6.52145   6.54805   6.55722   6.55912   6.56658
 Alpha virt. eigenvalues --    6.57109   6.57442   6.57502   6.57863   6.58196
 Alpha virt. eigenvalues --    6.58662   6.58854   6.59391   6.61030   6.61277
 Alpha virt. eigenvalues --    6.62027   6.64096   6.65663   6.70074   6.70768
 Alpha virt. eigenvalues --    6.70913   6.71436   6.71653   6.72548   6.73613
 Alpha virt. eigenvalues --    6.76885   6.77558   6.77703   6.80747   6.82856
 Alpha virt. eigenvalues --    6.83478   6.83529   6.85877   6.89048   6.90732
 Alpha virt. eigenvalues --    6.91931   6.92943   6.93511   7.05353   7.06280
 Alpha virt. eigenvalues --    7.10438   7.20674   7.20897   7.23650   7.25152
 Alpha virt. eigenvalues --    7.29486   7.31423   7.33103   7.36573   7.38648
 Alpha virt. eigenvalues --    7.40049   7.45135   7.48203   7.52529   7.53286
 Alpha virt. eigenvalues --    7.54442   7.58406   7.63261   7.69939   7.70856
 Alpha virt. eigenvalues --    7.73139   7.74172   7.89170   7.91594   7.94030
 Alpha virt. eigenvalues --    7.98686   8.07088   8.09109   8.09583   8.20706
 Alpha virt. eigenvalues --    8.33435   8.34700   8.39487   8.43768   8.69126
 Alpha virt. eigenvalues --    8.75491   8.91754   9.02115   9.07539   9.08877
 Alpha virt. eigenvalues --    9.12339   9.15686   9.55288   9.61885  14.36469
 Alpha virt. eigenvalues --   14.42226  14.44830  14.56606  14.58308  14.61647
 Alpha virt. eigenvalues --   14.80571  15.00150  15.02342  15.37260  19.24698
 Alpha virt. eigenvalues --   19.25489  19.26359  19.27610  19.27728  19.29837
 Alpha virt. eigenvalues --   19.30813  19.31654  19.31964  19.32294  19.32861
 Alpha virt. eigenvalues --   19.33144  19.33183  19.33623  19.34430  19.36508
 Alpha virt. eigenvalues --   19.37814  19.38588  19.40504  19.41638  19.43997
 Alpha virt. eigenvalues --   19.44225  19.44636  19.44787  19.60221  19.60889
 Alpha virt. eigenvalues --   19.84434  19.85887  19.86986  19.87492  24.40793
 Alpha virt. eigenvalues --   24.42941  24.87658  25.11646  25.88610  50.38609
 Alpha virt. eigenvalues --   50.49538  66.95631  66.96304  66.99205  67.00212
 Alpha virt. eigenvalues --   67.01746  67.02607
          Condensed to atoms (all electrons):
               1          2          3          4          5          6
     1  C    6.761852   0.118266   0.117465   0.067596  -1.842388  -0.243292
     2  F    0.118266   9.499511  -0.023743  -0.027900  -0.083495  -0.043336
     3  F    0.117465  -0.023743   9.499370  -0.027939  -0.081809  -0.044012
     4  F    0.067596  -0.027900  -0.027939   9.624764  -0.156314  -0.008171
     5  C   -1.842388  -0.083495  -0.081809  -0.156314  13.391258  -3.542186
     6  C   -0.243292  -0.043336  -0.044012  -0.008171  -3.542186  11.690196
     7  C   -0.531629   0.000243   0.000309   0.029272  -0.953628  -1.693080
     8  O    0.007041   0.000278   0.000278   0.000527  -0.192303  -0.155169
     9  C   -0.058863   0.000556   0.000555  -0.002584  -0.870499  -0.410105
    10  F   -0.000751  -0.000009   0.000003   0.000202   0.010269  -0.037673
    11  F   -0.000754   0.000003  -0.000009   0.000204   0.010338  -0.037672
    12  F    0.000158  -0.000002  -0.000002  -0.000007   0.005676   0.065032
    13  H    0.078687  -0.000413  -0.000419  -0.000849  -0.301726   0.539104
    14  O   -0.130013   0.004511   0.004298   0.002689   0.299657  -0.154539
    15  H    0.004886   0.001157   0.001169  -0.000578   0.009103  -0.017465
               7          8          9         10         11         12
     1  C   -0.531629   0.007041  -0.058863  -0.000751  -0.000754   0.000158
     2  F    0.000243   0.000278   0.000556  -0.000009   0.000003  -0.000002
     3  F    0.000309   0.000278   0.000555   0.000003  -0.000009  -0.000002
     4  F    0.029272   0.000527  -0.002584   0.000202   0.000204  -0.000007
     5  C   -0.953628  -0.192303  -0.870499   0.010269   0.010338   0.005676
     6  C   -1.693080  -0.155169  -0.410105  -0.037673  -0.037672   0.065032
     7  C   10.785815   0.368199  -1.596721  -0.089174  -0.089933  -0.201133
     8  O    0.368199   8.849009  -0.064030  -0.002276  -0.002211   0.015372
     9  C   -1.596721  -0.064030   7.093713   0.130140   0.130500   0.035901
    10  F   -0.089174  -0.002276   0.130140   9.485912  -0.018366  -0.034782
    11  F   -0.089933  -0.002211   0.130500  -0.018366   9.486295  -0.034764
    12  F   -0.201133   0.015372   0.035901  -0.034782  -0.034764   9.642717
    13  H   -0.175397  -0.005609   0.053519  -0.011054  -0.011022   0.001990
    14  O   -0.004451  -0.078282  -0.005276  -0.000034  -0.000034  -0.000056
    15  H   -0.057037   0.055460  -0.004381   0.000022   0.000016   0.000680
              13         14         15
     1  C    0.078687  -0.130013   0.004886
     2  F   -0.000413   0.004511   0.001157
     3  F   -0.000419   0.004298   0.001169
     4  F   -0.000849   0.002689  -0.000578
     5  C   -0.301726   0.299657   0.009103
     6  C    0.539104  -0.154539  -0.017465
     7  C   -0.175397  -0.004451  -0.057037
     8  O   -0.005609  -0.078282   0.055460
     9  C    0.053519  -0.005276  -0.004381
    10  F   -0.011054  -0.000034   0.000022
    11  F   -0.011022  -0.000034   0.000016
    12  F    0.001990  -0.000056   0.000680
    13  H    0.814475  -0.005761   0.003172
    14  O   -0.005761   8.813894   0.077749
    15  H    0.003172   0.077749   0.390931
 Mulliken charges:
               1
     1  C    1.651740
     2  F   -0.445627
     3  F   -0.445513
     4  F   -0.500910
     5  C    0.298046
     6  C    0.092366
     7  C    0.208345
     8  O   -0.796284
     9  C    1.567573
    10  F   -0.432429
    11  F   -0.432592
    12  F   -0.496780
    13  H    0.021303
    14  O   -0.824353
    15  H    0.535115
 Sum of Mulliken charges =  -0.00000
 Mulliken charges with hydrogens summed into heavy atoms:
               1
     1  C    1.651740
     2  F   -0.445627
     3  F   -0.445513
     4  F   -0.500910
     5  C    0.298046
     6  C    0.113669
     7  C    0.208345
     8  O   -0.796284
     9  C    1.567573
    10  F   -0.432429
    11  F   -0.432592
    12  F   -0.496780
    14  O   -0.289237
 Electronic spatial extent (au):  <R**2>=           2817.2182
 Charge=             -0.0000 electrons
 Dipole moment (field-independent basis, Debye):
    X=              0.3856    Y=              0.3240    Z=             -0.0011  Tot=              0.5036
 Quadrupole moment (field-independent basis, Debye-Ang):
   XX=            -80.2172   YY=            -71.5652   ZZ=            -70.6041
   XY=             -1.0039   XZ=             -0.0002   YZ=             -0.0002
 Traceless Quadrupole moment (field-independent basis, Debye-Ang):
   XX=             -6.0884   YY=              2.5636   ZZ=              3.5248
   XY=             -1.0039   XZ=             -0.0002   YZ=             -0.0002
 Octapole moment (field-independent basis, Debye-Ang**2):
  XXX=              1.5149  YYY=             14.8891  ZZZ=             -0.0098  XYY=              4.2329
  XXY=             10.5163  XXZ=              0.0018  XZZ=             -1.3340  YZZ=              2.9349
  YYZ=              0.0118  XYZ=             -0.0005
 Hexadecapole moment (field-independent basis, Debye-Ang**3):
 XXXX=          -2350.3428 YYYY=           -454.3340 ZZZZ=           -194.5971 XXXY=             -1.3604
 XXXZ=             -0.0049 YYYX=            -12.2480 YYYZ=              0.0053 ZZZX=             -0.0027
 ZZZY=             -0.0037 XXYY=           -479.7378 XXZZ=           -420.7379 YYZZ=           -110.3683
 XXYZ=             -0.0227 YYXZ=              0.0002 ZZXY=              4.9529
 N-N= 8.844090484079D+02 E-N=-3.998304338816D+03  KE= 9.386676445292D+02
 Calling FoFJK, ICntrl=      2127 FMM=F ISym2X=0 I1Cent= 0 IOpClX= 0 NMat=1 NMatS=1 NMatT=0.
 -------------------------------------------------------------------
 Center     Atomic                   Forces (Hartrees/Bohr)
 Number     Number              X              Y              Z
 -------------------------------------------------------------------
      1        6           0.003117965    0.000931915    0.000002985
      2        9           0.000235754   -0.004030288   -0.004831393
      3        9           0.000227821   -0.004016279    0.004845101
      4        9          -0.004733040    0.003276035   -0.000010659
      5        6          -0.003222053    0.010759591   -0.000004926
      6        6           0.003020551   -0.005555036   -0.000002359
      7        6           0.001795786    0.012000368    0.000002261
      8        8          -0.001370320   -0.008344198   -0.000000851
      9        6          -0.010507703   -0.000799968   -0.000000118
     10        9           0.002894666    0.000679679    0.004462392
     11        9           0.002901601    0.000695084   -0.004457981
     12        9           0.000737545   -0.003719431   -0.000003607
     13        1           0.002003621   -0.000093095   -0.000003932
     14        8          -0.000215586   -0.009055793    0.000001879
     15        1           0.003113393    0.007271415    0.000001206
 -------------------------------------------------------------------
 Cartesian Forces:  Max     0.012000368 RMS     0.004319198

 GradGradGradGradGradGradGradGradGradGradGradGradGradGradGradGradGradGrad
 Berny optimization.
 FormGI is forming the generalized inverse of G from B-inverse, IUseBI=4.
 Internal  Forces:  Max     0.009608842 RMS     0.003684349
 Search for a local minimum.
 Step number   1 out of a maximum of   68
 All quantities printed in internal units (Hartrees-Bohrs-Radians)
 Mixed Optimization -- RFO/linear search
 Second derivative matrix not updated -- first step.
 ITU=  0
     Eigenvalues ---    0.00230   0.00376   0.00805   0.01579   0.01670
     Eigenvalues ---    0.02113   0.02632   0.02924   0.10394   0.10627
     Eigenvalues ---    0.10755   0.10884   0.16000   0.16000   0.22000
     Eigenvalues ---    0.25000   0.25000   0.25000   0.25000   0.25000
     Eigenvalues ---    0.25000   0.25000   0.25000   0.25000   0.25000
     Eigenvalues ---    0.27728   0.29471   0.36496   0.39785   0.48551
     Eigenvalues ---    0.53168   0.56916   0.56919   0.58440   0.58569
     Eigenvalues ---    0.58582   0.60311   0.65335   0.96774
 RFO step:  Lambda=-2.79600032D-03 EMin= 2.30000000D-03
 Linear search not attempted -- first point.
 Iteration  1 RMS(Cart)=  0.05149556 RMS(Int)=  0.00115641
 Iteration  2 RMS(Cart)=  0.00145835 RMS(Int)=  0.00007157
 Iteration  3 RMS(Cart)=  0.00000036 RMS(Int)=  0.00007157
 Variable       Old X    -DE/DX   Delta X   Delta X   Delta X     New X
                                 (Linear)    (Quad)   (Total)
    R1        2.52081   0.00494   0.00000   0.00839   0.00839   2.52919
    R2        2.52091   0.00494   0.00000   0.00839   0.00839   2.52930
    R3        2.52197   0.00389   0.00000   0.00663   0.00663   2.52860
    R4        2.89031  -0.00291   0.00000  -0.00977  -0.00977   2.88054
    R5        2.56797  -0.00378   0.00000  -0.00707  -0.00707   2.56090
    R6        2.46953   0.00212   0.00000   0.00323   0.00323   2.47275
    R7        2.71846   0.00272   0.00000   0.00679   0.00679   2.72525
    R8        2.03313  -0.00018   0.00000  -0.00049  -0.00049   2.03264
    R9        2.29959   0.00840   0.00000   0.00866   0.00866   2.30825
   R10        2.92737   0.00159   0.00000   0.00568   0.00568   2.93305
   R11        2.53468   0.00390   0.00000   0.00682   0.00682   2.54150
   R12        2.53465   0.00390   0.00000   0.00682   0.00682   2.54147
   R13        2.50695   0.00147   0.00000   0.00243   0.00243   2.50937
   R14        1.88056  -0.00604   0.00000  -0.01237  -0.01237   1.86819
    A1        1.87811   0.00422   0.00000   0.01432   0.01410   1.89221
    A2        1.87326   0.00539   0.00000   0.02248   0.02234   1.89560
    A3        1.94083  -0.00454   0.00000  -0.01858  -0.01877   1.92206
    A4        1.87320   0.00539   0.00000   0.02249   0.02236   1.89556
    A5        1.94068  -0.00454   0.00000  -0.01856  -0.01875   1.92193
    A6        1.95403  -0.00494   0.00000  -0.01830  -0.01844   1.93559
    A7        2.11584   0.00639   0.00000   0.02528   0.02528   2.14112
    A8        1.97084  -0.00168   0.00000  -0.00665  -0.00665   1.96420
    A9        2.19650  -0.00471   0.00000  -0.01863  -0.01863   2.17787
   A10        2.06809  -0.00228   0.00000  -0.01022  -0.01022   2.05787
   A11        2.12016  -0.00089   0.00000  -0.00736  -0.00736   2.11280
   A12        2.09493   0.00317   0.00000   0.01758   0.01758   2.11251
   A13        2.18742  -0.00319   0.00000  -0.01264  -0.01264   2.17478
   A14        1.99211   0.00860   0.00000   0.03403   0.03403   2.02614
   A15        2.10366  -0.00541   0.00000  -0.02139  -0.02139   2.08227
   A16        1.93140  -0.00436   0.00000  -0.01684  -0.01698   1.91442
   A17        1.93158  -0.00436   0.00000  -0.01684  -0.01698   1.91461
   A18        1.96623  -0.00405   0.00000  -0.01689  -0.01705   1.94919
   A19        1.86510   0.00486   0.00000   0.02090   0.02079   1.88589
   A20        1.88286   0.00439   0.00000   0.01657   0.01642   1.89928
   A21        1.88284   0.00439   0.00000   0.01658   0.01643   1.89927
   A22        1.91460  -0.00961   0.00000  -0.05902  -0.05902   1.85558
    D1       -2.09767  -0.00037   0.00000  -0.00289  -0.00286  -2.10053
    D2        1.04410  -0.00037   0.00000  -0.00281  -0.00277   1.04133
    D3        2.09297   0.00038   0.00000   0.00390   0.00386   2.09684
    D4       -1.04844   0.00038   0.00000   0.00398   0.00395  -1.04449
    D5       -0.00226   0.00000   0.00000   0.00048   0.00048  -0.00178
    D6        3.13951   0.00000   0.00000   0.00057   0.00057   3.14008
    D7       -3.14143   0.00001   0.00000   0.00019   0.00019  -3.14124
    D8        0.00022   0.00000   0.00000   0.00016   0.00016   0.00038
    D9       -0.00004   0.00000   0.00000   0.00010   0.00010   0.00006
   D10       -3.14158   0.00000   0.00000   0.00006   0.00006  -3.14151
   D11        3.14143  -0.00000   0.00000  -0.00010  -0.00010   3.14133
   D12        0.00002  -0.00000   0.00000  -0.00002  -0.00002   0.00001
   D13       -0.00002  -0.00000   0.00000  -0.00002  -0.00002  -0.00004
   D14        3.14138  -0.00000   0.00000  -0.00006  -0.00006   3.14132
   D15        3.14152   0.00000   0.00000   0.00001   0.00002   3.14153
   D16       -0.00026  -0.00000   0.00000  -0.00003  -0.00003  -0.00030
   D17       -1.03403  -0.00026   0.00000  -0.00202  -0.00200  -1.03603
   D18        1.03016   0.00026   0.00000   0.00267   0.00265   1.03281
   D19        3.13972   0.00000   0.00000   0.00033   0.00033   3.14004
   D20        2.10738  -0.00026   0.00000  -0.00206  -0.00205   2.10533
   D21       -2.11161   0.00026   0.00000   0.00262   0.00261  -2.10900
   D22       -0.00206   0.00000   0.00000   0.00028   0.00028  -0.00178
         Item               Value     Threshold  Converged?
 Maximum Force            0.009609     0.000015     NO 
 RMS     Force            0.003684     0.000010     NO 
 Maximum Displacement     0.197058     0.000060     NO 
 RMS     Displacement     0.051349     0.000040     NO 
 Predicted change in Energy=-1.414109D-03
 GradGradGradGradGradGradGradGradGradGradGradGradGradGradGradGradGradGrad

                          Input orientation:                          
 ---------------------------------------------------------------------
 Center     Atomic      Atomic             Coordinates (Angstroms)
 Number     Number       Type             X           Y           Z
 ---------------------------------------------------------------------
      1          6           0        2.522065    0.277917    0.000057
      2          9           0        3.227047   -0.066390   -1.084261
      3          9           0        3.224657   -0.063094    1.087035
      4          9           0        2.356525    1.605711   -0.002118
      5          6           0        1.176270   -0.437889   -0.000237
      6          6           0       -0.005355    0.225621   -0.000420
      7          6           0       -1.217876   -0.555121   -0.000238
      8          8           0       -1.256842   -1.775971    0.000033
      9          6           0       -2.546424    0.247368   -0.000077
     10          9           0       -2.600450    1.034049    1.089407
     11          9           0       -2.599158    1.037081   -1.087414
     12          9           0       -3.604330   -0.555227   -0.001830
     13          1           0       -0.038005    1.300752   -0.000713
     14          8           0        1.300951   -1.740460    0.000031
     15          1           0        0.382944   -2.107348    0.000060
 ---------------------------------------------------------------------
                    Distance matrix (angstroms):
                    1          2          3          4          5
     1  C    0.000000
     2  F    1.338392   0.000000
     3  F    1.338448   2.171300   0.000000
     4  F    1.338076   2.173653   2.173665   0.000000
     5  C    1.524317   2.349213   2.349153   2.359938   0.000000
     6  C    2.527961   3.421754   3.420364   2.735531   1.355169
     7  C    3.831595   4.601229   4.600038   4.176787   2.397015
     8  O    4.300999   4.919717   4.919283   4.948960   2.776779
     9  C    5.068582   5.882760   5.880780   5.087634   3.785239
    10  F    5.291368   6.316290   5.927528   5.107820   4.197325
    11  F    5.290165   5.929782   6.313115   5.104900   4.196587
    12  F    6.182787   6.933854   6.932740   6.340462   4.782041
    13  H    2.756838   3.701853   3.699762   2.413872   2.120692
    14  O    2.359018   2.772733   2.774127   3.508719   1.308525
    15  H    3.203955   3.664721   3.665490   4.204978   1.848367
                    6          7          8          9         10
     6  C    0.000000
     7  C    1.442140   0.000000
     8  O    2.360634   1.221472   0.000000
     9  C    2.541163   1.552105   2.399359   0.000000
    10  F    2.928446   2.371560   3.299732   1.344902   0.000000
    11  F    2.927086   2.371707   3.301154   1.344890   2.176823
    12  F    3.682710   2.386454   2.645926   1.327903   2.173562
    13  H    1.075626   2.199173   3.309349   2.720622   2.797430
    14  O    2.360490   2.783796   2.558039   4.330561   4.909742
    15  H    2.365063   2.229806   1.672934   3.758442   4.467179
                   11         12         13         14         15
    11  F    0.000000
    12  F    2.173547   0.000000
    13  H    2.794627   4.020365   0.000000
    14  O    4.910001   5.046441   3.322917   0.000000
    15  H    4.467993   4.278720   3.433998   0.988606   0.000000
 Symmetry turned off by external request.
 Stoichiometry    C5H2F6O2
 Framework group  C1[X(C5H2F6O2)]
 Deg. of freedom    39
 Full point group                 C1      NOp   1
 Rotational constants (GHZ):           1.6910827           0.3784588           0.3474311
 Standard basis: 6-311++G(3df,3pd) (5D, 7F)
   543 basis functions,   796 primitive gaussians,   623 cartesian basis functions
    51 alpha electrons       51 beta electrons
       nuclear repulsion energy       884.2775199022 Hartrees.
 NAtoms=   15 NActive=   15 NUniq=   15 SFac= 1.00D+00 NAtFMM=   60 NAOKFM=F Big=F
 Integral buffers will be    131072 words long.
 Raffenetti 2 integral format.
 Two-electron integral symmetry is turned off.
 One-electron integrals computed using PRISM.
 NBasis=   543 RedAO= T EigKep=  3.51D-06  NBF=   543
 NBsUse=   543 1.00D-06 EigRej= -1.00D+00 NBFU=   543
 Initial guess from the checkpoint file:  "/home/artemiy/opt/gaussian/scr/Gau-1818.chk"
 B after Tr=     0.002343   -0.025403    0.000042
         Rot=    1.000000   -0.000010   -0.000001   -0.000587 Ang=  -0.07 deg.
 ExpMin= 3.60D-02 ExpMax= 1.14D+04 ExpMxC= 1.72D+03 IAcc=3 IRadAn=         5 AccDes= 0.00D+00
 Harris functional with IExCor=  402 and IRadAn=       5 diagonalized for initial guess.
 HarFok:  IExCor=  402 AccDes= 0.00D+00 IRadAn=         5 IDoV= 1 UseB2=F ITyADJ=14
 ICtDFT=  3500011 ScaDFX=  1.000000  1.000000  1.000000  1.000000
 FoFCou: FMM=F IPFlag=           0 FMFlag=      100000 FMFlg1=           0
         NFxFlg=           0 DoJE=T BraDBF=F KetDBF=T FulRan=T
         wScrn=  0.000000 ICntrl=       500 IOpCl=  0 I1Cent=   200000004 NGrid=           0
         NMat0=    1 NMatS0=      1 NMatT0=    0 NMatD0=    1 NMtDS0=    0 NMtDT0=    0
 Symmetry not used in FoFCou.
 Requested convergence on RMS density matrix=1.00D-08 within 128 cycles.
 Requested convergence on MAX density matrix=1.00D-06.
 Requested convergence on             energy=1.00D-06.
 No special actions if energy rises.
 SCF Done:  E(RB3LYP) =  -941.588039892     A.U. after   11 cycles
            NFock= 11  Conv=0.54D-08     -V/T= 2.0032
 Calling FoFJK, ICntrl=      2127 FMM=F ISym2X=0 I1Cent= 0 IOpClX= 0 NMat=1 NMatS=1 NMatT=0.
 -------------------------------------------------------------------
 Center     Atomic                   Forces (Hartrees/Bohr)
 Number     Number              X              Y              Z
 -------------------------------------------------------------------
      1        6          -0.003791741   -0.001997103    0.000001717
      2        9           0.000984507    0.001642697    0.001273888
      3        9           0.000984347    0.001636569   -0.001284824
      4        9           0.002700162   -0.000733272    0.000005972
      5        6           0.002187005    0.002953441    0.000006812
      6        6          -0.003665813   -0.001923885   -0.000006761
      7        6           0.000991782    0.008988802    0.000001556
      8        8          -0.000788938   -0.004847294   -0.000003520
      9        6           0.000657820   -0.003856925   -0.000001672
     10        9          -0.001330836    0.000135834   -0.001475501
     11        9          -0.001330761    0.000130410    0.001473006
     12        9           0.001366945    0.002871296    0.000005423
     13        1           0.000140398    0.000084704   -0.000000033
     14        8           0.004957236   -0.000346023    0.000000625
     15        1          -0.004062114   -0.004739252    0.000003312
 -------------------------------------------------------------------
 Cartesian Forces:  Max     0.008988802 RMS     0.002451109

 GradGradGradGradGradGradGradGradGradGradGradGradGradGradGradGradGradGrad
 Berny optimization.
 Using GEDIIS/GDIIS optimizer.
 FormGI is forming the generalized inverse of G from B-inverse, IUseBI=4.
 Internal  Forces:  Max     0.005530217 RMS     0.002192381
 Search for a local minimum.
 Step number   2 out of a maximum of   68
 All quantities printed in internal units (Hartrees-Bohrs-Radians)
 Mixed Optimization -- RFO/linear search
 Update second derivatives using D2CorX and points    1    2
 DE= -9.11D-04 DEPred=-1.41D-03 R= 6.45D-01
 TightC=F SS=  1.41D+00  RLast= 1.08D-01 DXNew= 5.0454D-01 3.2383D-01
 Trust test= 6.45D-01 RLast= 1.08D-01 DXMaxT set to 3.24D-01
 ITU=  1  0
 Use linear search instead of GDIIS.
     Eigenvalues ---    0.00230   0.00376   0.00807   0.01579   0.01650
     Eigenvalues ---    0.02106   0.02632   0.02924   0.10725   0.10947
     Eigenvalues ---    0.11102   0.11181   0.15803   0.16924   0.21014
     Eigenvalues ---    0.23184   0.25000   0.25000   0.25000   0.25000
     Eigenvalues ---    0.25000   0.25000   0.25000   0.25000   0.27709
     Eigenvalues ---    0.29356   0.33590   0.36497   0.40062   0.50430
     Eigenvalues ---    0.54753   0.56917   0.57271   0.58468   0.58569
     Eigenvalues ---    0.58576   0.61384   0.67744   0.94986
 RFO step:  Lambda=-2.91581819D-04 EMin= 2.30000027D-03
 Quartic linear search produced a step of -0.26109.
 Iteration  1 RMS(Cart)=  0.01681651 RMS(Int)=  0.00012348
 Iteration  2 RMS(Cart)=  0.00017161 RMS(Int)=  0.00001425
 Iteration  3 RMS(Cart)=  0.00000003 RMS(Int)=  0.00001425
 Variable       Old X    -DE/DX   Delta X   Delta X   Delta X     New X
                                 (Linear)    (Quad)   (Total)
    R1        2.52919  -0.00094  -0.00219   0.00194  -0.00025   2.52894
    R2        2.52930  -0.00094  -0.00219   0.00193  -0.00026   2.52904
    R3        2.52860  -0.00106  -0.00173   0.00112  -0.00061   2.52799
    R4        2.88054   0.00103   0.00255  -0.00111   0.00144   2.88198
    R5        2.56090   0.00423   0.00185   0.00324   0.00508   2.56598
    R6        2.47275   0.00515  -0.00084   0.00701   0.00617   2.47893
    R7        2.72525  -0.00149  -0.00177  -0.00021  -0.00198   2.72326
    R8        2.03264   0.00008   0.00013  -0.00002   0.00011   2.03275
    R9        2.30825   0.00487  -0.00226   0.00691   0.00465   2.31290
   R10        2.93305   0.00017  -0.00148   0.00261   0.00113   2.93418
   R11        2.54150  -0.00106  -0.00178   0.00115  -0.00062   2.54087
   R12        2.54147  -0.00106  -0.00178   0.00116  -0.00062   2.54085
   R13        2.50937  -0.00282  -0.00063  -0.00256  -0.00319   2.50618
   R14        1.86819   0.00553   0.00323   0.00380   0.00703   1.87522
    A1        1.89221  -0.00245  -0.00368  -0.00191  -0.00554   1.88667
    A2        1.89560  -0.00305  -0.00583  -0.00057  -0.00639   1.88922
    A3        1.92206   0.00244   0.00490   0.00001   0.00495   1.92701
    A4        1.89556  -0.00305  -0.00584  -0.00057  -0.00638   1.88918
    A5        1.92193   0.00244   0.00489   0.00002   0.00494   1.92688
    A6        1.93559   0.00339   0.00481   0.00289   0.00773   1.94332
    A7        2.14112  -0.00168  -0.00660   0.00467  -0.00193   2.13919
    A8        1.96420  -0.00237   0.00174  -0.00952  -0.00778   1.95641
    A9        2.17787   0.00405   0.00486   0.00485   0.00971   2.18759
   A10        2.05787   0.00468   0.00267   0.01179   0.01445   2.07232
   A11        2.11280  -0.00249   0.00192  -0.01142  -0.00950   2.10330
   A12        2.11251  -0.00220  -0.00459  -0.00036  -0.00495   2.10756
   A13        2.17478  -0.00004   0.00330  -0.00494  -0.00164   2.17313
   A14        2.02614   0.00155  -0.00888   0.01753   0.00865   2.03479
   A15        2.08227  -0.00151   0.00558  -0.01259  -0.00701   2.07526
   A16        1.91442   0.00209   0.00443  -0.00049   0.00397   1.91839
   A17        1.91461   0.00209   0.00443  -0.00051   0.00395   1.91856
   A18        1.94919   0.00170   0.00445  -0.00124   0.00324   1.95243
   A19        1.88589  -0.00227  -0.00543   0.00056  -0.00484   1.88105
   A20        1.89928  -0.00190  -0.00429   0.00088  -0.00338   1.89590
   A21        1.89927  -0.00190  -0.00429   0.00088  -0.00337   1.89590
   A22        1.85558   0.00541   0.01541   0.00189   0.01730   1.87288
    D1       -2.10053   0.00002   0.00075   0.00004   0.00078  -2.09975
    D2        1.04133   0.00002   0.00072   0.00004   0.00076   1.04209
    D3        2.09684  -0.00002  -0.00101   0.00238   0.00138   2.09822
    D4       -1.04449  -0.00002  -0.00103   0.00238   0.00136  -1.04313
    D5       -0.00178   0.00000  -0.00013   0.00121   0.00108  -0.00070
    D6        3.14008   0.00000  -0.00015   0.00121   0.00106   3.14114
    D7       -3.14124  -0.00000  -0.00005   0.00003  -0.00002  -3.14126
    D8        0.00038  -0.00000  -0.00004   0.00002  -0.00002   0.00036
    D9        0.00006  -0.00000  -0.00003   0.00002  -0.00000   0.00006
   D10       -3.14151  -0.00000  -0.00002   0.00001  -0.00000  -3.14151
   D11        3.14133  -0.00000   0.00003  -0.00009  -0.00006   3.14127
   D12        0.00001  -0.00000   0.00000  -0.00009  -0.00008  -0.00007
   D13       -0.00004  -0.00000   0.00000  -0.00015  -0.00015  -0.00019
   D14        3.14132  -0.00000   0.00002  -0.00001   0.00000   3.14132
   D15        3.14153  -0.00000  -0.00000  -0.00014  -0.00015   3.14139
   D16       -0.00030  -0.00000   0.00001  -0.00000   0.00001  -0.00029
   D17       -1.03603   0.00013   0.00052   0.00063   0.00115  -1.03488
   D18        1.03281  -0.00013  -0.00069   0.00072   0.00003   1.03284
   D19        3.14004  -0.00000  -0.00009   0.00067   0.00059   3.14063
   D20        2.10533   0.00013   0.00054   0.00077   0.00130   2.10663
   D21       -2.10900  -0.00013  -0.00068   0.00085   0.00017  -2.10883
   D22       -0.00178   0.00000  -0.00007   0.00081   0.00073  -0.00104
         Item               Value     Threshold  Converged?
 Maximum Force            0.005530     0.000015     NO 
 RMS     Force            0.002192     0.000010     NO 
 Maximum Displacement     0.070134     0.000060     NO 
 RMS     Displacement     0.016916     0.000040     NO 
 Predicted change in Energy=-2.840724D-04
 GradGradGradGradGradGradGradGradGradGradGradGradGradGradGradGradGradGrad

                          Input orientation:                          
 ---------------------------------------------------------------------
 Center     Atomic      Atomic             Coordinates (Angstroms)
 Number     Number       Type             X           Y           Z
 ---------------------------------------------------------------------
      1          6           0        2.521563    0.280245    0.000136
      2          9           0        3.233046   -0.055273   -1.082523
      3          9           0        3.231667   -0.053833    1.084209
      4          9           0        2.358498    1.608023   -0.000829
      5          6           0        1.179337   -0.443838   -0.000132
      6          6           0       -0.007257    0.216295   -0.000427
      7          6           0       -1.227016   -0.551121   -0.000241
      8          8           0       -1.276886   -1.774036   -0.000017
      9          6           0       -2.554593    0.254126   -0.000221
     10          9           0       -2.611334    1.043697    1.086623
     11          9           0       -2.610569    1.045423   -1.085835
     12          9           0       -3.615218   -0.542064   -0.001233
     13          1           0       -0.033949    1.291646   -0.000813
     14          8           0        1.322172   -1.747830    0.000257
     15          1           0        0.412560   -2.144461    0.000361
 ---------------------------------------------------------------------
                    Distance matrix (angstroms):
                    1          2          3          4          5
     1  C    0.000000
     2  F    1.338257   0.000000
     3  F    1.338309   2.166733   0.000000
     4  F    1.337753   2.168283   2.168294   0.000000
     5  C    1.525080   2.353780   2.353712   2.366550   0.000000
     6  C    2.529629   3.426988   3.426373   2.744759   1.357859
     7  C    3.839664   4.616206   4.615537   4.185429   2.408743
     8  O    4.318366   4.946256   4.945876   4.965313   2.793287
     9  C    5.076224   5.896090   5.895052   5.096224   3.798603
    10  F    5.301881   6.330064   5.945186   5.118617   4.214615
    11  F    5.301283   5.946375   6.328442   5.117165   4.214266
    12  F    6.191630   6.950171   6.949560   6.348870   4.795561
    13  H    2.748377   3.695612   3.694839   2.413275   2.117539
    14  O    2.356190   2.772833   2.773220   3.512225   1.311791
    15  H    3.213580   3.673212   3.673256   4.227033   1.865493
                    6          7          8          9         10
     6  C    0.000000
     7  C    1.441089   0.000000
     8  O    2.360799   1.223932   0.000000
     9  C    2.547617   1.552702   2.397078   0.000000
    10  F    2.940661   2.375090   3.301690   1.344571   0.000000
    11  F    2.939863   2.375223   3.302584   1.344560   2.172459
    12  F    3.686800   2.388219   2.643020   1.326215   2.169297
    13  H    1.075683   2.195267   3.308066   2.725820   2.808364
    14  O    2.371744   2.816109   2.599189   4.363157   4.944217
    15  H    2.397794   2.286252   1.729579   3.815393   4.526395
                   11         12         13         14         15
    11  F    0.000000
    12  F    2.169285   0.000000
    13  H    2.806576   4.023429   0.000000
    14  O    4.944523   5.082489   3.328285   0.000000
    15  H    4.527084   4.334822   3.464997   0.992325   0.000000
 Symmetry turned off by external request.
 Stoichiometry    C5H2F6O2
 Framework group  C1[X(C5H2F6O2)]
 Deg. of freedom    39
 Full point group                 C1      NOp   1
 Rotational constants (GHZ):           1.6874721           0.3763016           0.3452873
 Standard basis: 6-311++G(3df,3pd) (5D, 7F)
   543 basis functions,   796 primitive gaussians,   623 cartesian basis functions
    51 alpha electrons       51 beta electrons
       nuclear repulsion energy       882.7642524020 Hartrees.
 NAtoms=   15 NActive=   15 NUniq=   15 SFac= 1.00D+00 NAtFMM=   60 NAOKFM=F Big=F
 Integral buffers will be    131072 words long.
 Raffenetti 2 integral format.
 Two-electron integral symmetry is turned off.
 One-electron integrals computed using PRISM.
 NBasis=   543 RedAO= T EigKep=  3.56D-06  NBF=   543
 NBsUse=   543 1.00D-06 EigRej= -1.00D+00 NBFU=   543
 Initial guess from the checkpoint file:  "/home/artemiy/opt/gaussian/scr/Gau-1818.chk"
 B after Tr=    -0.004064    0.007075   -0.000032
         Rot=    1.000000   -0.000022   -0.000003    0.000182 Ang=  -0.02 deg.
 ExpMin= 3.60D-02 ExpMax= 1.14D+04 ExpMxC= 1.72D+03 IAcc=3 IRadAn=         5 AccDes= 0.00D+00
 Harris functional with IExCor=  402 and IRadAn=       5 diagonalized for initial guess.
 HarFok:  IExCor=  402 AccDes= 0.00D+00 IRadAn=         5 IDoV= 1 UseB2=F ITyADJ=14
 ICtDFT=  3500011 ScaDFX=  1.000000  1.000000  1.000000  1.000000
 FoFCou: FMM=F IPFlag=           0 FMFlag=      100000 FMFlg1=           0
         NFxFlg=           0 DoJE=T BraDBF=F KetDBF=T FulRan=T
         wScrn=  0.000000 ICntrl=       500 IOpCl=  0 I1Cent=   200000004 NGrid=           0
         NMat0=    1 NMatS0=      1 NMatT0=    0 NMatD0=    1 NMtDS0=    0 NMtDT0=    0
 Symmetry not used in FoFCou.
 Requested convergence on RMS density matrix=1.00D-08 within 128 cycles.
 Requested convergence on MAX density matrix=1.00D-06.
 Requested convergence on             energy=1.00D-06.
 No special actions if energy rises.
 SCF Done:  E(RB3LYP) =  -941.588287460     A.U. after   10 cycles
            NFock= 10  Conv=0.48D-08     -V/T= 2.0032
 Calling FoFJK, ICntrl=      2127 FMM=F ISym2X=0 I1Cent= 0 IOpClX= 0 NMat=1 NMatS=1 NMatT=0.
 -------------------------------------------------------------------
 Center     Atomic                   Forces (Hartrees/Bohr)
 Number     Number              X              Y              Z
 -------------------------------------------------------------------
      1        6          -0.000750975   -0.000318699    0.000013521
      2        9           0.000027204    0.000391294    0.000280575
      3        9           0.000021365    0.000394414   -0.000297275
      4        9           0.000543525   -0.000409286   -0.000001503
      5        6          -0.000958171    0.001909353    0.000009908
      6        6          -0.000318690   -0.001663976   -0.000003529
      7        6           0.000698054    0.001370754   -0.000014905
      8        8           0.000982695   -0.000802588    0.000006953
      9        6           0.000205720   -0.001500560    0.000005529
     10        9          -0.000350878    0.000164257   -0.000326403
     11        9          -0.000346099    0.000160825    0.000324991
     12        9           0.001067193    0.001120076    0.000001049
     13        1           0.000196527    0.000352957    0.000004341
     14        8          -0.001237532   -0.001400186    0.000003759
     15        1           0.000220062    0.000231365   -0.000007011
 -------------------------------------------------------------------
 Cartesian Forces:  Max     0.001909353 RMS     0.000698710

 GradGradGradGradGradGradGradGradGradGradGradGradGradGradGradGradGradGrad
 Berny optimization.
 Using GEDIIS/GDIIS optimizer.
 FormGI is forming the generalized inverse of G from B-inverse, IUseBI=4.
 Internal  Forces:  Max     0.002593379 RMS     0.000800114
 Search for a local minimum.
 Step number   3 out of a maximum of   68
 All quantities printed in internal units (Hartrees-Bohrs-Radians)
 Mixed Optimization -- En-DIIS/RFO-DIIS
 Update second derivatives using D2CorX and points    1    2    3
 DE= -2.48D-04 DEPred=-2.84D-04 R= 8.71D-01
 TightC=F SS=  1.41D+00  RLast= 3.72D-02 DXNew= 5.4462D-01 1.1154D-01
 Trust test= 8.71D-01 RLast= 3.72D-02 DXMaxT set to 3.24D-01
 ITU=  1  1  0
 Use linear search instead of GDIIS.
     Eigenvalues ---    0.00230   0.00376   0.00809   0.01579   0.01661
     Eigenvalues ---    0.02104   0.02632   0.02924   0.10656   0.10825
     Eigenvalues ---    0.11020   0.11113   0.15195   0.16934   0.19345
     Eigenvalues ---    0.23471   0.25000   0.25000   0.25000   0.25000
     Eigenvalues ---    0.25000   0.25000   0.25000   0.27278   0.28009
     Eigenvalues ---    0.29440   0.36134   0.36756   0.40528   0.49917
     Eigenvalues ---    0.56873   0.56917   0.57997   0.58488   0.58575
     Eigenvalues ---    0.59526   0.61679   0.69029   0.93044
 RFO step:  Lambda=-9.27571803D-05 EMin= 2.29993901D-03
 Quartic linear search produced a step of -0.09090.
 Iteration  1 RMS(Cart)=  0.01110876 RMS(Int)=  0.00003720
 Iteration  2 RMS(Cart)=  0.00005625 RMS(Int)=  0.00000076
 Iteration  3 RMS(Cart)=  0.00000000 RMS(Int)=  0.00000076
 Variable       Old X    -DE/DX   Delta X   Delta X   Delta X     New X
                                 (Linear)    (Quad)   (Total)
    R1        2.52894  -0.00031   0.00002  -0.00033  -0.00031   2.52863
    R2        2.52904  -0.00033   0.00002  -0.00036  -0.00033   2.52870
    R3        2.52799  -0.00047   0.00006  -0.00074  -0.00068   2.52731
    R4        2.88198  -0.00011  -0.00013  -0.00010  -0.00024   2.88175
    R5        2.56598  -0.00226  -0.00046  -0.00221  -0.00268   2.56331
    R6        2.47893   0.00105  -0.00056   0.00356   0.00300   2.48192
    R7        2.72326  -0.00218   0.00018  -0.00529  -0.00511   2.71816
    R8        2.03275   0.00035  -0.00001   0.00086   0.00085   2.03359
    R9        2.31290   0.00076  -0.00042   0.00248   0.00206   2.31495
   R10        2.93418  -0.00052  -0.00010  -0.00114  -0.00124   2.93294
   R11        2.54087  -0.00015   0.00006  -0.00027  -0.00021   2.54066
   R12        2.54085  -0.00015   0.00006  -0.00027  -0.00021   2.54064
   R13        2.50618  -0.00153   0.00029  -0.00322  -0.00293   2.50325
   R14        1.87522  -0.00029  -0.00064   0.00148   0.00084   1.87607
    A1        1.88667  -0.00031   0.00050  -0.00218  -0.00168   1.88499
    A2        1.88922  -0.00059   0.00058  -0.00378  -0.00320   1.88601
    A3        1.92701   0.00039  -0.00045   0.00260   0.00215   1.92916
    A4        1.88918  -0.00058   0.00058  -0.00376  -0.00318   1.88600
    A5        1.92688   0.00040  -0.00045   0.00264   0.00218   1.92906
    A6        1.94332   0.00062  -0.00070   0.00407   0.00337   1.94668
    A7        2.13919   0.00086   0.00018   0.00304   0.00321   2.14240
    A8        1.95641   0.00109   0.00071   0.00111   0.00182   1.95823
    A9        2.18759  -0.00196  -0.00088  -0.00415  -0.00503   2.18255
   A10        2.07232  -0.00259  -0.00131  -0.00587  -0.00718   2.06515
   A11        2.10330   0.00109   0.00086   0.00075   0.00162   2.10492
   A12        2.10756   0.00150   0.00045   0.00511   0.00556   2.11312
   A13        2.17313  -0.00145   0.00015  -0.00594  -0.00579   2.16734
   A14        2.03479   0.00055  -0.00079   0.00562   0.00484   2.03962
   A15        2.07526   0.00090   0.00064   0.00032   0.00095   2.07622
   A16        1.91839   0.00062  -0.00036   0.00300   0.00264   1.92103
   A17        1.91856   0.00061  -0.00036   0.00294   0.00258   1.92114
   A18        1.95243   0.00021  -0.00029   0.00147   0.00118   1.95361
   A19        1.88105  -0.00068   0.00044  -0.00368  -0.00324   1.87781
   A20        1.89590  -0.00041   0.00031  -0.00202  -0.00172   1.89418
   A21        1.89590  -0.00041   0.00031  -0.00203  -0.00172   1.89418
   A22        1.87288  -0.00023  -0.00157   0.00289   0.00131   1.87420
    D1       -2.09975   0.00006  -0.00007   0.00019   0.00012  -2.09963
    D2        1.04209   0.00006  -0.00007  -0.00004  -0.00010   1.04198
    D3        2.09822  -0.00006  -0.00013  -0.00044  -0.00056   2.09766
    D4       -1.04313  -0.00006  -0.00012  -0.00066  -0.00078  -1.04391
    D5       -0.00070   0.00000  -0.00010  -0.00015  -0.00025  -0.00094
    D6        3.14114  -0.00000  -0.00010  -0.00037  -0.00047   3.14067
    D7       -3.14126  -0.00000   0.00000  -0.00011  -0.00010  -3.14136
    D8        0.00036  -0.00000   0.00000  -0.00015  -0.00015   0.00021
    D9        0.00006   0.00000   0.00000   0.00015   0.00015   0.00021
   D10       -3.14151   0.00000   0.00000   0.00011   0.00011  -3.14141
   D11        3.14127   0.00001   0.00001   0.00028   0.00029   3.14155
   D12       -0.00007   0.00000   0.00001   0.00005   0.00006  -0.00002
   D13       -0.00019   0.00000   0.00001   0.00030   0.00031   0.00013
   D14        3.14132   0.00000  -0.00000  -0.00004  -0.00004   3.14129
   D15        3.14139   0.00001   0.00001   0.00034   0.00035  -3.14145
   D16       -0.00029   0.00000  -0.00000   0.00000   0.00000  -0.00029
   D17       -1.03488   0.00004  -0.00010   0.00021   0.00010  -1.03478
   D18        1.03284  -0.00004  -0.00000  -0.00068  -0.00068   1.03216
   D19        3.14063   0.00000  -0.00005  -0.00026  -0.00031   3.14032
   D20        2.10663   0.00004  -0.00012  -0.00011  -0.00023   2.10640
   D21       -2.10883  -0.00004  -0.00002  -0.00100  -0.00101  -2.10984
   D22       -0.00104  -0.00000  -0.00007  -0.00057  -0.00064  -0.00168
         Item               Value     Threshold  Converged?
 Maximum Force            0.002593     0.000015     NO 
 RMS     Force            0.000800     0.000010     NO 
 Maximum Displacement     0.032963     0.000060     NO 
 RMS     Displacement     0.011125     0.000040     NO 
 Predicted change in Energy=-4.901049D-05
 GradGradGradGradGradGradGradGradGradGradGradGradGradGradGradGradGradGrad

                          Input orientation:                          
 ---------------------------------------------------------------------
 Center     Atomic      Atomic             Coordinates (Angstroms)
 Number     Number       Type             X           Y           Z
 ---------------------------------------------------------------------
      1          6           0        2.523488    0.276703    0.000115
      2          9           0        3.234681   -0.061812   -1.081601
      3          9           0        3.233158   -0.059702    1.083534
      4          9           0        2.373840    1.605697   -0.001281
      5          6           0        1.176549   -0.438310   -0.000056
      6          6           0       -0.006500    0.225266   -0.000391
      7          6           0       -1.221135   -0.545198   -0.000234
      8          8           0       -1.259442   -1.769620    0.000313
      9          6           0       -2.554967    0.248364   -0.000203
     10          9           0       -2.621568    1.038597    1.085462
     11          9           0       -2.620412    1.040897   -1.084247
     12          9           0       -3.608478   -0.554661   -0.001623
     13          1           0       -0.031191    1.301115   -0.000746
     14          8           0        1.308426   -1.745049    0.000185
     15          1           0        0.395569   -2.135289    0.000090
 ---------------------------------------------------------------------
                    Distance matrix (angstroms):
                    1          2          3          4          5
     1  C    0.000000
     2  F    1.338095   0.000000
     3  F    1.338132   2.165136   0.000000
     4  F    1.337393   2.165347   2.165365   0.000000
     5  C    1.524955   2.355292   2.355239   2.368854   0.000000
     6  C    2.530511   3.428803   3.428044   2.751655   1.356443
     7  C    3.833761   4.610566   4.609880   4.189295   2.400066
     8  O    4.300930   4.927910   4.927540   4.959184   2.776048
     9  C    5.078534   5.897937   5.896761   5.112288   3.794171
    10  F    5.313197   6.340561   5.956852   5.143608   4.217262
    11  F    5.312206   5.958027   6.338365   5.141436   4.216685
    12  F    6.188067   6.945364   6.944821   6.360446   4.786441
    13  H    2.752417   3.700234   3.699116   2.424240   2.117601
    14  O    2.358784   2.777410   2.778243   3.516050   1.313377
    15  H    3.216481   3.678304   3.678835   4.231848   1.868066
                    6          7          8          9         10
     6  C    0.000000
     7  C    1.438386   0.000000
     8  O    2.355724   1.225021   0.000000
     9  C    2.548572   1.552046   2.398049   0.000000
    10  F    2.946042   2.376627   3.304394   1.344461   0.000000
    11  F    2.944916   2.376711   3.305679   1.344449   2.169711
    12  F    3.685449   2.387362   2.644635   1.324664   2.166615
    13  H    1.076132   2.196552   3.307267   2.734545   2.821138
    14  O    2.368792   2.799701   2.567986   4.347356   4.936737
    15  H    2.394553   2.267625   1.694927   3.793081   4.511619
                   11         12         13         14         15
    11  F    0.000000
    12  F    2.166600   0.000000
    13  H    2.818821   4.029999   0.000000
    14  O    4.936928   5.058950   3.327715   0.000000
    15  H    4.512215   4.304739   3.462802   0.992772   0.000000
 Symmetry turned off by external request.
 Stoichiometry    C5H2F6O2
 Framework group  C1[X(C5H2F6O2)]
 Deg. of freedom    39
 Full point group                 C1      NOp   1
 Rotational constants (GHZ):           1.6930728           0.3759537           0.3451434
 Standard basis: 6-311++G(3df,3pd) (5D, 7F)
   543 basis functions,   796 primitive gaussians,   623 cartesian basis functions
    51 alpha electrons       51 beta electrons
       nuclear repulsion energy       883.1245802039 Hartrees.
 NAtoms=   15 NActive=   15 NUniq=   15 SFac= 1.00D+00 NAtFMM=   60 NAOKFM=F Big=F
 Integral buffers will be    131072 words long.
 Raffenetti 2 integral format.
 Two-electron integral symmetry is turned off.
 One-electron integrals computed using PRISM.
 NBasis=   543 RedAO= T EigKep=  3.54D-06  NBF=   543
 NBsUse=   543 1.00D-06 EigRej= -1.00D+00 NBFU=   543
 Initial guess from the checkpoint file:  "/home/artemiy/opt/gaussian/scr/Gau-1818.chk"
 B after Tr=     0.001719   -0.003515    0.000017
         Rot=    1.000000    0.000016    0.000001   -0.000188 Ang=   0.02 deg.
 ExpMin= 3.60D-02 ExpMax= 1.14D+04 ExpMxC= 1.72D+03 IAcc=3 IRadAn=         5 AccDes= 0.00D+00
 Harris functional with IExCor=  402 and IRadAn=       5 diagonalized for initial guess.
 HarFok:  IExCor=  402 AccDes= 0.00D+00 IRadAn=         5 IDoV= 1 UseB2=F ITyADJ=14
 ICtDFT=  3500011 ScaDFX=  1.000000  1.000000  1.000000  1.000000
 FoFCou: FMM=F IPFlag=           0 FMFlag=      100000 FMFlg1=           0
         NFxFlg=           0 DoJE=T BraDBF=F KetDBF=T FulRan=T
         wScrn=  0.000000 ICntrl=       500 IOpCl=  0 I1Cent=   200000004 NGrid=           0
         NMat0=    1 NMatS0=      1 NMatT0=    0 NMatD0=    1 NMtDS0=    0 NMtDT0=    0
 Symmetry not used in FoFCou.
 Requested convergence on RMS density matrix=1.00D-08 within 128 cycles.
 Requested convergence on MAX density matrix=1.00D-06.
 Requested convergence on             energy=1.00D-06.
 No special actions if energy rises.
 SCF Done:  E(RB3LYP) =  -941.588301493     A.U. after   10 cycles
            NFock= 10  Conv=0.58D-08     -V/T= 2.0032
 Calling FoFJK, ICntrl=      2127 FMM=F ISym2X=0 I1Cent= 0 IOpClX= 0 NMat=1 NMatS=1 NMatT=0.
 -------------------------------------------------------------------
 Center     Atomic                   Forces (Hartrees/Bohr)
 Number     Number              X              Y              Z
 -------------------------------------------------------------------
      1        6           0.000791033    0.000177740    0.000007149
      2        9          -0.000312650   -0.000251425   -0.000156784
      3        9          -0.000312650   -0.000249918    0.000151365
      4        9          -0.000632833    0.000056624    0.000001824
      5        6           0.000682302   -0.001624783   -0.000013116
      6        6          -0.000805186    0.000355363   -0.000007827
      7        6           0.000233100    0.000707720    0.000033778
      8        8          -0.001218382   -0.000590108   -0.000021135
      9        6          -0.000352248   -0.000228487   -0.000005452
     10        9           0.000337434    0.000031670    0.000246543
     11        9           0.000335740    0.000038094   -0.000251172
     12        9           0.000276224   -0.000188738    0.000001375
     13        1           0.000002198    0.000060725    0.000000357
     14        8           0.001757210    0.001248980    0.000001776
     15        1          -0.000781290    0.000456542    0.000011320
 -------------------------------------------------------------------
 Cartesian Forces:  Max     0.001757210 RMS     0.000553997

 GradGradGradGradGradGradGradGradGradGradGradGradGradGradGradGradGradGrad
 Berny optimization.
 Using GEDIIS/GDIIS optimizer.
 FormGI is forming the generalized inverse of G from B-inverse, IUseBI=4.
 Internal  Forces:  Max     0.002019478 RMS     0.000652852
 Search for a local minimum.
 Step number   4 out of a maximum of   68
 All quantities printed in internal units (Hartrees-Bohrs-Radians)
 Mixed Optimization -- En-DIIS/RFO-DIIS
 Swapping is turned off.
 Update second derivatives using D2CorX and points    1    2    3    4
 DE= -1.40D-05 DEPred=-4.90D-05 R= 2.86D-01
 Trust test= 2.86D-01 RLast= 1.79D-02 DXMaxT set to 3.24D-01
 ITU=  0  1  1  0
     Eigenvalues ---    0.00230   0.00376   0.00806   0.01579   0.01655
     Eigenvalues ---    0.02103   0.02632   0.02925   0.10621   0.10775
     Eigenvalues ---    0.10961   0.11029   0.14410   0.16885   0.21635
     Eigenvalues ---    0.23694   0.25000   0.25000   0.25000   0.25000
     Eigenvalues ---    0.25000   0.25000   0.25212   0.27605   0.29071
     Eigenvalues ---    0.34825   0.36518   0.37277   0.43854   0.49151
     Eigenvalues ---    0.56508   0.56917   0.57685   0.58490   0.58575
     Eigenvalues ---    0.59115   0.67354   0.73859   0.92541
 En-DIIS/RFO-DIIS/Sim-DIIS IScMMF=       -3 using points:     4    3
 RFO step:  Lambda=-4.18291161D-05.
 DidBck=T Rises=F RFO-DIIS coefs:    0.62749    0.37251
 Iteration  1 RMS(Cart)=  0.00524692 RMS(Int)=  0.00000856
 Iteration  2 RMS(Cart)=  0.00001339 RMS(Int)=  0.00000033
 Iteration  3 RMS(Cart)=  0.00000000 RMS(Int)=  0.00000033
 Variable       Old X    -DE/DX   Delta X   Delta X   Delta X     New X
                                 (Linear)    (Quad)   (Total)
    R1        2.52863   0.00002   0.00011  -0.00019  -0.00008   2.52855
    R2        2.52870   0.00002   0.00012  -0.00021  -0.00009   2.52862
    R3        2.52731   0.00013   0.00025  -0.00025   0.00000   2.52731
    R4        2.88175  -0.00054   0.00009  -0.00109  -0.00100   2.88074
    R5        2.56331   0.00113   0.00100  -0.00039   0.00061   2.56391
    R6        2.48192  -0.00160  -0.00112  -0.00019  -0.00131   2.48061
    R7        2.71816   0.00045   0.00190  -0.00189   0.00001   2.71817
    R8        2.03359   0.00006  -0.00032   0.00051   0.00020   2.03379
    R9        2.31495   0.00063  -0.00077   0.00105   0.00028   2.31524
   R10        2.93294  -0.00069   0.00046  -0.00208  -0.00162   2.93132
   R11        2.54066   0.00020   0.00008   0.00006   0.00014   2.54080
   R12        2.54064   0.00021   0.00008   0.00007   0.00014   2.54078
   R13        2.50325  -0.00010   0.00109  -0.00141  -0.00032   2.50294
   R14        1.87607   0.00054  -0.00031   0.00076   0.00045   1.87652
    A1        1.88499   0.00055   0.00063   0.00070   0.00133   1.88632
    A2        1.88601   0.00066   0.00119  -0.00014   0.00105   1.88707
    A3        1.92916  -0.00045  -0.00080   0.00007  -0.00073   1.92843
    A4        1.88600   0.00066   0.00118  -0.00013   0.00105   1.88705
    A5        1.92906  -0.00044  -0.00081   0.00010  -0.00072   1.92834
    A6        1.94668  -0.00088  -0.00125  -0.00056  -0.00182   1.94487
    A7        2.14240  -0.00080  -0.00120  -0.00027  -0.00147   2.14093
    A8        1.95823  -0.00034  -0.00068   0.00064  -0.00004   1.95819
    A9        2.18255   0.00114   0.00187  -0.00036   0.00151   2.18406
   A10        2.06515   0.00202   0.00267   0.00077   0.00344   2.06859
   A11        2.10492  -0.00101  -0.00060  -0.00115  -0.00176   2.10316
   A12        2.11312  -0.00101  -0.00207   0.00039  -0.00168   2.11144
   A13        2.16734   0.00192   0.00216   0.00149   0.00365   2.17099
   A14        2.03962  -0.00107  -0.00180  -0.00067  -0.00247   2.03715
   A15        2.07622  -0.00085  -0.00035  -0.00082  -0.00117   2.07504
   A16        1.92103  -0.00048  -0.00098   0.00020  -0.00078   1.92024
   A17        1.92114  -0.00047  -0.00096   0.00019  -0.00077   1.92037
   A18        1.95361  -0.00032  -0.00044  -0.00004  -0.00048   1.95313
   A19        1.87781   0.00041   0.00121  -0.00082   0.00038   1.87819
   A20        1.89418   0.00046   0.00064   0.00022   0.00086   1.89504
   A21        1.89418   0.00046   0.00064   0.00023   0.00087   1.89505
   A22        1.87420  -0.00136  -0.00049  -0.00427  -0.00476   1.86944
    D1       -2.09963   0.00006  -0.00004   0.00079   0.00074  -2.09889
    D2        1.04198   0.00006   0.00004   0.00082   0.00086   1.04284
    D3        2.09766  -0.00006   0.00021  -0.00019   0.00002   2.09767
    D4       -1.04391  -0.00005   0.00029  -0.00016   0.00013  -1.04378
    D5       -0.00094  -0.00000   0.00009   0.00028   0.00038  -0.00057
    D6        3.14067   0.00000   0.00018   0.00032   0.00049   3.14116
    D7       -3.14136  -0.00001   0.00004  -0.00017  -0.00013  -3.14149
    D8        0.00021  -0.00000   0.00005  -0.00014  -0.00008   0.00013
    D9        0.00021  -0.00001  -0.00006  -0.00021  -0.00027  -0.00006
   D10       -3.14141  -0.00001  -0.00004  -0.00018  -0.00022   3.14156
   D11        3.14155  -0.00001  -0.00011  -0.00012  -0.00023   3.14133
   D12       -0.00002  -0.00001  -0.00002  -0.00008  -0.00011  -0.00012
   D13        0.00013  -0.00001  -0.00012  -0.00043  -0.00055  -0.00042
   D14        3.14129   0.00000   0.00001   0.00022   0.00024   3.14152
   D15       -3.14145  -0.00001  -0.00013  -0.00047  -0.00060   3.14114
   D16       -0.00029  -0.00000  -0.00000   0.00019   0.00019  -0.00010
   D17       -1.03478   0.00003  -0.00004   0.00016   0.00012  -1.03466
   D18        1.03216  -0.00005   0.00025  -0.00062  -0.00037   1.03179
   D19        3.14032  -0.00000   0.00012  -0.00023  -0.00012   3.14020
   D20        2.10640   0.00005   0.00009   0.00078   0.00086   2.10727
   D21       -2.10984  -0.00003   0.00038   0.00000   0.00038  -2.10946
   D22       -0.00168   0.00001   0.00024   0.00039   0.00063  -0.00106
         Item               Value     Threshold  Converged?
 Maximum Force            0.002019     0.000015     NO 
 RMS     Force            0.000653     0.000010     NO 
 Maximum Displacement     0.016638     0.000060     NO 
 RMS     Displacement     0.005247     0.000040     NO 
 Predicted change in Energy=-2.091599D-05
 GradGradGradGradGradGradGradGradGradGradGradGradGradGradGradGradGradGrad

                          Input orientation:                          
 ---------------------------------------------------------------------
 Center     Atomic      Atomic             Coordinates (Angstroms)
 Number     Number       Type             X           Y           Z
 ---------------------------------------------------------------------
      1          6           0        2.521568    0.278138    0.000014
      2          9           0        3.232654   -0.057915   -1.082488
      3          9           0        3.231750   -0.056386    1.083623
      4          9           0        2.365035    1.606341   -0.000982
      5          6           0        1.177511   -0.441154    0.000028
      6          6           0       -0.007074    0.220336   -0.000225
      7          6           0       -1.222905   -0.548253   -0.000063
      8          8           0       -1.267574   -1.772609   -0.000137
      9          6           0       -2.552803    0.250219   -0.000268
     10          9           0       -2.615317    1.040674    1.085569
     11          9           0       -2.613833    1.042887   -1.084565
     12          9           0       -3.609014   -0.548972   -0.001806
     13          1           0       -0.031915    1.296286   -0.000569
     14          8           0        1.313768   -1.746747    0.000479
     15          1           0        0.400167   -2.135849    0.000708
 ---------------------------------------------------------------------
                    Distance matrix (angstroms):
                    1          2          3          4          5
     1  C    0.000000
     2  F    1.338053   0.000000
     3  F    1.338086   2.166112   0.000000
[...]
 ! D16   D(13,6,7,9)            -0.0001         -DE/DX =    0.0                 !
 ! D17   D(6,7,9,10)           -59.1854         -DE/DX =    0.0                 !
 ! D18   D(6,7,9,11)            59.1862         -DE/DX =    0.0                 !
 ! D19   D(6,7,9,12)          -179.9996         -DE/DX =    0.0                 !
 ! D20   D(8,7,9,10)           120.8144         -DE/DX =    0.0                 !
 ! D21   D(8,7,9,11)          -120.814          -DE/DX =    0.0                 !
 ! D22   D(8,7,9,12)             0.0002         -DE/DX =    0.0                 !
 --------------------------------------------------------------------------------
 GradGradGradGradGradGradGradGradGradGradGradGradGradGradGradGradGradGrad


 ----------------------------------------------------------------------

 Electric dipole moment (input orientation):
 (Debye = 10**-18 statcoulomb cm , SI units = C m)
                  (au)            (Debye)         (10**-30 SI)
   Tot        0.264933D+00      0.673393D+00      0.224620D+01
   x          0.110038D+00      0.279689D+00      0.932943D+00
   y          0.241000D+00      0.612562D+00      0.204329D+01
   z          0.000000D+00      0.000000D+00      0.000000D+00

 Dipole polarizability, Alpha (input orientation).
 (esu units = cm**3 , SI units = C**2 m**2 J**-1)
 Alpha(0;0):
               (au)            (10**-24 esu)      (10**-40 SI)
   iso        0.763166D+02      0.113090D+02      0.125829D+02
   aniso      0.404782D+02      0.599826D+01      0.667396D+01
   xx         0.101218D+03      0.149990D+02      0.166887D+02
   yx        -0.117715D+01     -0.174436D+00     -0.194086D+00
   yy         0.727932D+02      0.107868D+02      0.120020D+02
   zx         0.598460D-02      0.886826D-03      0.986727D-03
   zy        -0.156647D-02     -0.232127D-03     -0.258276D-03
   zz         0.549382D+02      0.814100D+01      0.905808D+01

 ----------------------------------------------------------------------

 Dipole orientation:
     6          3.74428981         -1.71013874          2.45741534
     9          5.94494295         -0.46521812          2.43794891
     9          4.24427101         -4.18858723          2.43795547
     9          2.55035251         -1.16479599          4.61730880
     6          2.15622344         -0.98477897          0.16577425
     6         -0.16890363          0.07727131          0.37404687
     6         -1.51996256          0.69437935         -1.90139110
     8         -0.71404538          0.32624685         -4.04094814
     6         -4.16917460          1.90445208         -1.57407898
     9         -5.68245141          0.34079168         -0.26130913
     9         -3.97812108          4.07209019         -0.26135336
     9         -5.24985277          2.39804273         -3.77659426
     1         -0.97627881          0.44606432          2.20377421
     8          3.29916348         -1.50685458         -1.97196475
     1          2.14674200         -0.98046942         -3.35785525

 Electric dipole moment (dipole orientation):
 (Debye = 10**-18 statcoulomb cm , SI units = C m)
                  (au)            (Debye)         (10**-30 SI)
   Tot        0.264933D+00      0.673393D+00      0.224620D+01
   x          0.000000D+00      0.000000D+00      0.000000D+00
   y          0.000000D+00      0.000000D+00      0.000000D+00
   z          0.264933D+00      0.673393D+00      0.224620D+01

 Dipole polarizability, Alpha (dipole orientation).
 (esu units = cm**3 , SI units = C**2 m**2 J**-1)
 Alpha(0;0):
               (au)            (10**-24 esu)      (10**-40 SI)
   iso        0.763166D+02      0.113090D+02      0.125829D+02
   aniso      0.404782D+02      0.599826D+01      0.667396D+01
   xx         0.899083D+02      0.133230D+02      0.148239D+02
   yx        -0.159732D+02     -0.236698D+01     -0.263362D+01
   yy         0.622342D+02      0.922216D+01      0.102610D+02
   zx         0.906763D+01      0.134368D+01      0.149505D+01
   zy        -0.414166D+01     -0.613730D+00     -0.682867D+00
   zz         0.768073D+02      0.113817D+02      0.126638D+02

 ----------------------------------------------------------------------
 1\1\GINC-ARTEMIY-VIRTUALBOX\Freq\RB3LYP\6-311++G(3df,3pd)\C5H2F6O2\ART
 EMIY\26-Nov-2021\0\\#N Geom=AllCheck Guess=TCheck SCRF=Check GenChk RB
 3LYP/6-311++G(3df,3pd) Freq\\Title Card Required\\0,1\C,2.5216157135,0
 .2782039921,0.0002413987\F,3.232069293,-0.0575209883,-1.0827125851\F,3
 .2318101042,-0.0573680857,1.0834109796\F,2.3644938132,1.6064139935,0.0
 00128515\C,1.1775139477,-0.4412047104,0.0001291168\C,-0.0071984801,0.2
 208801679,-0.0000755945\C,-1.2223126856,-0.5479970593,-0.000170327\O,-
 1.2660613335,-1.7726614762,-0.0000789801\C,-2.552369532,0.2496990915,-
 0.0003993183\F,-2.6138459681,1.0414585471,1.0849003094\F,-2.6135784856
 ,1.0412798777,-1.0858443445\F,-3.6083638311,-0.5494094227,-0.000463523
 8\H,-0.0323178446,1.2967524656,-0.0001623263\O,1.3125221258,-1.7464299
 638,0.0002503465\H,0.3980415136,-2.13509885,0.000162614\\Version=ES64L
 -G16RevA.03\HF=-941.5883231\RMSD=2.315e-09\RMSF=5.863e-07\ZeroPoint=0.
 0769151\Thermal=0.0885228\Dipole=0.1100382,0.2410004,-0.0000034\Dipole
 Deriv=1.9525174,-0.0954911,0.0000522,0.1646498,1.4780916,0.000033,0.00
 00308,0.,1.6202175,-0.7053733,0.0544225,0.311634,0.0055385,-0.2969258,
 -0.1003268,0.3159126,-0.1242623,-0.6632669,-0.7052195,0.0543491,-0.311
 655,0.0054707,-0.2968931,0.100276,-0.3159234,0.1242229,-0.6634498,-0.4
 117974,-0.0347886,-0.0000164,-0.0518607,-0.85777,0.0000342,-0.0000142,
 0.0000378,-0.2602298,0.8360681,-0.1097784,0.0001073,-1.0468229,0.89265
 29,-0.0002015,0.0001781,-0.0000814,0.0577149,-1.5098693,0.0180511,-0.0
 001723,-0.0191341,-0.2194747,0.0000022,-0.00017,0.000007,-0.1704209,1.
 3616611,0.070293,0.0001488,0.7126918,0.9097571,0.0000316,0.0000981,-0.
 0000506,0.1505545,-0.7087987,0.0331339,-0.0000578,-0.5261193,-0.965779
 8,-0.0000134,-0.0000136,0.0000584,-0.276099,1.6890288,0.1369492,0.0000
 004,0.046414,1.4061796,0.0000211,0.0000071,0.0000325,1.60238,-0.453936
 5,0.1073503,0.0744463,0.1357846,-0.5077337,-0.3246768,0.0588145,-0.274
 776,-0.6683558,-0.4539036,0.1072705,-0.0744119,0.135695,-0.5076353,0.3
 246846,-0.0587843,0.2747762,-0.6684877,-0.8784089,-0.2876171,-0.000053
 1,-0.2339558,-0.4473595,-0.0000131,-0.000057,-0.0000197,-0.2588518,0.1
 106756,0.0017815,-0.0000067,0.0009052,0.0605238,0.0000081,-0.0000062,0
 .0000077,0.1614773,-0.5738993,-0.0529364,-0.0000378,0.6674533,-1.00712
 32,0.0001469,-0.0000949,0.0000541,-0.2408164,0.4512556,-0.0029894,0.00
 00223,0.0032898,0.35949,-0.000006,0.0000224,-0.0000067,0.277634\Polar=
 101.2184524,-1.1771539,72.7931811,0.0059846,-0.0015665,54.9381792\Quad
 rupole=-4.0448607,1.4839963,2.5608644,-0.5127716,-0.0007917,-0.0000032
 \PG=C01 [X(C5H2F6O2)]\NImag=0\\0.56564785,0.03105070,0.54275768,0.0000
 1035,-0.00000189,0.47720705,-0.15313681,0.01319345,0.09147003,0.159567
 86,0.01805142,-0.08016337,-0.02564558,-0.04545164,0.09698680,0.0910395
 6,-0.02088105,-0.17829584,-0.13534898,0.06432287,0.28175086,-0.1530940
 4,0.01317575,-0.09146706,0.02385213,-0.00215225,0.00724092,0.15950398,
 0.01803296,-0.08015709,0.02563684,-0.00215278,0.01373776,-0.00206444,-
 0.04541760,0.09696909,-0.09103757,0.02087097,-0.17834796,-0.00721457,0
 .00204995,-0.08505929,0.13532748,-0.06430838,0.28183568,-0.08158758,-0
 .00222662,-0.00000113,-0.00018352,0.03832297,0.01692889,-0.00017582,0.
 03830946,-0.01693251,0.08418468,-0.01388306,-0.26152014,0.00001171,0.0
 2788839,-0.03984104,-0.03634555,0.02787759,-0.03982940,0.03635681,-0.0
 3866398,0.38611250,-0.00000028,0.00001319,-0.07128713,0.01548732,-0.04
 676823,-0.00758862,-0.01548951,0.04678202,-0.00760808,0.00000348,-0.00
 002638,0.07838772,-0.17384048,-0.04795472,-0.00001028,-0.02559586,-0.0
 0574943,0.01794737,-0.02558209,-0.00575074,-0.01794930,0.00822736,0.01
 135346,-0.00000071,0.73949156,-0.04803708,-0.08353109,-0.00000440,0.01
 167249,0.00601429,-0.00963422,0.01166485,0.00601489,0.00963436,-0.0256
 9375,-0.04308466,0.00000047,-0.07871429,0.70522730,-0.00001010,-0.0000
 0444,-0.06342548,0.03915960,0.00510996,-0.01360639,-0.03916423,-0.0051
 1406,-0.01362072,0.00000201,0.00000497,0.00740803,0.00007565,-0.000050
 71,0.19661423,-0.00500550,0.01686777,-0.00000329,-0.00633309,-0.001532
 47,0.00360267,-0.00633261,-0.00153298,-0.00360417,-0.00496689,-0.00335
 004,-0.00000034,-0.35337478,0.08768136,-0.00004458,0.66733801,-0.00514
 422,0.01589815,-0.00000120,-0.00529879,-0.00118231,0.00363355,-0.00529
 783,-0.00118285,-0.00363460,-0.00009080,-0.00074829,0.00000006,0.12974
 623,-0.19026461,0.00002687,-0.07258554,0.75677779,-0.00000144,0.000001
 66,0.00982073,-0.00143750,0.00000774,0.00063395,0.00143653,-0.00000786
 ,0.00063389,-0.00000066,-0.00000032,-0.00008171,-0.00004762,0.00002133
 ,-0.06233987,0.00007828,-0.00006083,0.10072772,-0.01321257,0.00009071,
 -0.00000284,0.00281462,-0.00024970,-0.00073685,0.00281367,-0.00024972,
 0.00073743,0.00277092,0.00188869,0.00000017,-0.05667584,0.01955822,-0.
 00000918,-0.21417111,-0.06715857,-0.00001301,0.55939449,-0.00771979,-0
 .00699060,0.00000028,0.00435160,0.00045090,-0.00236114,0.00435147,0.00
 045130,0.00236226,0.00045288,0.00167487,-0.00000007,-0.01659362,0.0662
 1569,-0.00000708,-0.01434315,-0.14382557,0.00000378,0.03455447,0.86494
 729,-0.00000226,0.00000126,0.00898419,-0.00269086,-0.00041239,0.000593
 74,0.00269073,0.00041231,0.00059411,0.00000029,0.00000014,0.00018477,-
 0.00000640,-0.00000245,0.00341933,-0.00001678,-0.00000281,-0.07182695,
 0.00004058,-0.00004661,0.21682130,0.00314290,0.00052468,0.00000042,-0.
 00069969,-0.00028508,0.00017680,-0.00069959,-0.00028510,-0.00017692,-0
 .00114913,-0.00142069,-0.00000001,-0.00365942,0.01569819,-0.00000154,0
 .01802159,-0.04316717,0.00000334,-0.11787017,-0.02948589,-0.00000415,0
 .12635902,0.00873468,0.00098922,0.00000100,-0.00290401,0.00031720,0.00
 147419,-0.00290366,0.00031700,-0.00147496,-0.00155446,0.00034711,-0.00
 000023,0.02771828,-0.04448092,0.00000692,-0.06742628,-0.05020627,-0.00
 000318,0.00159533,-0.62787605,0.00004447,0.03868602,0.73468525,-0.0000
 0020,-0.00000006,-0.00059569,0.00013041,0.00006019,0.00003275,-0.00013
 014,-0.00006031,0.00003292,0.,-0.00000023,-0.00023165,-0.00000248,0.00
 000539,-0.00158081,0.00000518,-0.00000009,0.01877417,-0.00000668,0.000
 04072,-0.06586592,0.00000851,-0.00005029,0.03514765,-0.00599704,-0.001
 66493,-0.00000054,0.00190323,0.00018953,-0.00086056,0.00190322,0.00018
 964,0.00086117,0.00129483,0.00107786,0.00000010,-0.00780852,0.00561464
 ,-0.00000171,-0.00917378,0.00960436,-0.00000325,-0.16520543,0.02444115
 ,-0.00001418,0.01105583,0.00853312,-0.00000097,0.58295020,0.00152754,0
 .00424032,-0.00000020,-0.00115880,-0.00059833,0.00058627,-0.00115880,-
 0.00059841,-0.00058657,-0.00026192,-0.00168827,0.00000008,-0.00365880,
 -0.00618422,0.00000022,-0.01847723,0.01540428,-0.00000270,0.03528452,-
 0.07017424,0.00000448,0.02436881,-0.04430958,0.00000768,-0.00132639,0.
 52996924,-0.00000077,-0.00000060,-0.00082268,0.00083783,-0.00005200,-0
 .00069175,-0.00083699,0.00005204,-0.00069163,0.00000021,0.00000024,-0.
 00018012,-0.00000106,0.00000139,0.00279679,-0.00000114,0.00000085,0.01
 084335,-0.00001480,0.00000314,-0.06799342,-0.00000225,0.00000564,0.013
 84409,0.00001638,-0.00000632,0.45217485,0.00189433,0.00072669,0.000554
 25,-0.00074995,-0.00009215,0.00030015,-0.00048031,-0.00007436,-0.00024
 497,-0.00037376,-0.00045453,-0.00001696,0.00233101,-0.00227321,0.00003
 662,-0.00438643,-0.00065607,-0.00122794,0.00949409,0.01773368,0.023080
 58,-0.00519297,0.00500619,-0.00185530,-0.08657764,0.02311628,0.0287382
 2,0.07110422,-0.00120045,-0.00144005,-0.00097873,0.00062551,0.00023841
 ,-0.00012344,0.00036976,0.00018168,0.00027751,0.00022588,0.00079436,0.
 00011455,-0.00069789,0.00209676,0.00102387,0.00482878,-0.00138390,0.00
 327927,-0.00432207,-0.01258775,-0.02996168,0.00641692,-0.00405036,0.00
 265712,0.02916873,-0.14612830,-0.08881504,-0.00309893,0.17619671,-0.00
 072208,-0.00077355,-0.00094529,0.00030023,0.00015749,0.00007250,0.0003
 3159,0.00007541,0.00036162,0.00016284,0.00043009,0.00015442,-0.0002354
 6,0.00077693,0.00059107,0.00253612,0.00002198,0.00231564,-0.00555548,-
 0.01342585,-0.01335197,0.00638422,-0.00517006,0.00105308,0.02994536,-0
 .08674483,-0.17065339,-0.01248485,0.14332889,0.27163337,0.00189430,0.0
 0072641,-0.00055365,-0.00048029,-0.00007431,0.00024477,-0.00074980,-0.
 00009216,-0.00030033,-0.00037372,-0.00045443,0.00001690,0.00233097,-0.
 00227303,-0.00003580,-0.00438614,-0.00065585,0.00122640,0.00949844,0.0
 1772661,-0.02307788,-0.00519183,0.00500519,0.00185295,-0.08656314,0.02
 309034,-0.02872144,0.01440478,-0.00399499,0.00275249,0.07109794,-0.001
 20059,-0.00143976,0.00097850,0.00036977,0.00018163,-0.00027739,0.00062
 543,0.00023840,0.00012356,0.00022589,0.00079427,-0.00011459,-0.0006976
 0,0.00209647,-0.00102428,0.00482925,-0.00138443,-0.00327744,-0.0043284
 7,-0.01258059,0.02996051,0.00641648,-0.00404992,-0.00265471,0.02914196
 ,-0.14609954,0.08881820,-0.00399385,0.02476190,-0.00644757,-0.00306170
 ,0.17614961,0.00072300,0.00077381,-0.00094553,-0.00033187,-0.00007540,
 0.00036166,-0.00030054,-0.00015754,0.00007235,-0.00016301,-0.00043030,
 0.00015447,0.00023601,-0.00077776,0.00059140,-0.00253860,-0.00002154,0
 .00231584,0.00556175,0.01343009,-0.01336340,-0.00638679,0.00517215,0.0
 0105157,-0.02992947,0.08674652,-0.17069677,-0.00272784,0.00642882,-0.0
 8298727,0.01243603,-0.14331395,0.27168671,0.00262729,0.00154916,0.0000
 0022,-0.00123442,-0.00012848,0.00070057,-0.00123427,-0.00012857,-0.000
 70087,-0.00053891,-0.00040079,-0.00000004,-0.00037338,-0.00601625,0.00
 000044,-0.00818606,0.00854370,-0.00000174,-0.04006283,-0.03673461,-0.0
 0000300,0.00486815,0.00200951,0.00000051,-0.23956770,-0.07974824,-0.00
 001402,-0.00072334,-0.02860077,-0.02329276,-0.00073728,-0.02860601,0.0
 2329907,0.28502863,0.00025580,-0.00050247,0.00000006,-0.00008715,0.000
 09916,0.00007328,-0.00008712,0.00009915,-0.00007331,-0.00006562,0.0002
 9164,-0.00000003,0.00070932,-0.00080660,0.00000014,0.00008587,0.000115
 41,0.00000002,0.00237180,-0.00307145,0.00000125,0.00633188,0.00578169,
 0.00000026,-0.09869672,-0.13156689,-0.00000726,-0.03831508,-0.03899576
 ,-0.03254901,-0.03831761,-0.03898434,0.03254478,0.16581812,0.20595506,
 0.00000032,0.00000022,-0.00008991,-0.00005059,0.00001274,0.00007717,0.
 00005028,-0.00001278,0.00007702,-0.00000007,-0.00000007,0.00003465,-0.
 00000007,-0.00000068,-0.00019229,-0.00000105,0.00000105,0.00017293,-0.
 00000617,-0.00000356,0.00871278,0.00000017,-0.00000027,-0.00063851,-0.
 00001252,-0.00000493,-0.07205719,-0.03330540,-0.03677846,-0.00721986,0
 .03331329,0.03677662,-0.00721735,0.00001175,0.00000997,0.07874938,-0.0
 0028732,0.00330793,0.00000011,0.00028128,-0.00049574,-0.00043261,0.000
 28153,-0.00049566,0.00043288,-0.00183567,-0.00222276,0.00000002,0.0061
 4301,0.02870654,-0.00000127,-0.05744285,0.00601542,-0.00000441,0.00925
 082,-0.02515793,0.00000353,-0.00598972,-0.00454946,-0.00000105,-0.0005
 7217,-0.00219625,-0.00000013,-0.00038046,0.00086194,0.00053377,-0.0003
 8031,0.00086168,-0.00053375,0.00065934,0.00055058,0.00000007,0.0574264
 2,0.00043522,-0.00104908,-0.00000010,-0.00005606,0.00005510,0.00009612
 ,-0.00005623,0.00005508,-0.00009622,-0.00294109,0.00028219,-0.00000044
 ,-0.00025194,-0.01113174,0.00000071,0.00815799,-0.35442201,0.00002659,
 0.00326689,-0.00894468,0.00000087,-0.00185182,0.00011324,0.00000015,-0
 .00094077,-0.00110484,0.00000010,0.00070334,0.00041333,0.00010691,0.00
 070338,0.00041343,-0.00010695,0.00020525,0.00028931,-0.00000002,-0.007
 73007,0.37233859,0.00000035,0.00000024,-0.00324795,0.00126123,0.000092
 63,-0.00049674,-0.00126098,-0.00009284,-0.00049688,-0.00000001,-0.0000
 0029,-0.00052053,0.00000090,0.00000445,-0.00164536,-0.00000453,0.00002
 620,-0.02651895,0.00000135,-0.00000276,-0.00313399,-0.00000126,-0.0000
 0017,0.00506009,-0.00000022,-0.00000006,0.00168294,-0.00023894,-0.0007
 2522,-0.00093280,0.00023899,0.00072523,-0.00093297,0.00000010,0.000000
 02,-0.00028134,0.00000512,-0.00002824,0.02241993,0.00782461,-0.0316221
 2,0.00000378,0.00050102,-0.00074584,-0.00105586,0.00050070,-0.00074557
 ,0.00105569,-0.00614658,-0.01206167,-0.00000005,-0.13114510,0.02067406
 ,-0.00001108,0.01461543,0.04270707,-0.00000369,-0.00709160,-0.01827924
 ,0.00000114,-0.03700425,0.01851487,-0.00000688,0.00297238,-0.00030762,
 0.00000045,-0.00106777,0.00130737,0.00107182,-0.00106757,0.00130715,-0
 .00107228,0.00000872,0.00059657,-0.00000005,-0.00527871,0.00090275,-0.
 00000205,0.48526482,-0.00387656,-0.04190077,0.00000255,-0.00129997,0.0
 0296495,0.00153313,-0.00129951,0.00296458,-0.00153357,-0.00502722,-0.0
 0231367,-0.00000036,0.03548210,-0.36845921,0.00002936,0.05882500,-0.04
 468823,0.00001248,-0.03376857,-0.04438188,-0.00000119,-0.01448844,0.04
 148402,-0.00000474,-0.00613002,-0.00024286,-0.00000076,0.00188102,-0.0
 0017016,0.00024667,0.00188112,-0.00017019,-0.00024616,0.00304814,0.001
 28802,0.00000027,0.00336388,0.00241560,0.00000102,0.06956466,0.5406427
 2,0.00000157,-0.00000086,-0.00258430,-0.00055363,0.00089289,0.00196835
 ,0.00055351,-0.00089329,0.00196913,-0.00000055,-0.00000130,0.00125248,
 -0.00001229,0.00002741,-0.05766850,-0.00000491,0.00001039,0.01717869,0
 .00000237,0.00000076,-0.00484031,-0.00000427,-0.00000049,0.00509440,0.
 00000089,-0.00000004,-0.00027603,-0.00028001,-0.00014859,-0.00004662,0
 .00027945,0.00014894,-0.00004681,-0.00000024,-0.00000002,0.00002364,-0
 .00000224,0.00000070,0.01006418,0.00005040,-0.00002973,0.05284064,0.00
 313006,0.00225516,-0.00000036,-0.00050650,0.00039315,0.00025316,-0.000
 50670,0.00039318,-0.00025343,0.00085380,0.00282595,-0.00000008,0.01953
 156,-0.03826274,0.00000516,-0.02621580,0.00343807,-0.00000329,0.018252
 50,0.04470236,-0.00000135,0.01400929,-0.03646533,0.00000612,-0.0006142
 7,0.00090658,-0.00000051,0.00070420,-0.00188980,-0.00172781,0.00070369
 ,-0.00188939,0.00172828,-0.00053393,-0.00115065,0.00000005,-0.00187519
 ,-0.00054685,-0.00000005,-0.32288610,-0.10815563,-0.00003002,0.2959533
 9,0.00297343,-0.00519096,0.00000115,0.00030798,0.00073884,-0.00003218,
 0.00030815,0.00073882,0.00003218,-0.00101163,-0.00127146,-0.00000004,-
 0.04494036,-0.03972236,-0.00000244,-0.00202834,0.00109284,-0.00000053,
 0.01146646,-0.00330722,0.00000184,-0.00745879,-0.00906163,-0.00000108,
 0.00079782,-0.00091835,0.00000038,-0.00020901,0.00007312,-0.00003351,-
 0.00020897,0.00007306,0.00003344,-0.00081016,0.00000807,-0.00000011,-0
 .00082010,0.00027646,-0.00000021,-0.09181244,-0.08943291,-0.00000678,0
 .13344593,0.14590370,-0.00000045,0.00000109,0.00457581,-0.00101865,0.0
 0024714,0.00024764,0.00101840,-0.00024715,0.00024785,0.00000022,0.0000
 0047,-0.00007870,0.00000573,-0.00000150,0.00265858,-0.00000286,0.00000
 013,-0.00264945,0.00000137,0.00000603,0.00106575,0.00000372,-0.0000047
 0,-0.01117814,-0.00000048,0.00000041,0.00272095,-0.00032761,0.00042112
 ,-0.00004450,0.00032784,-0.00042163,-0.00004392,0.00000001,-0.00000016
 ,-0.00015113,-0.00000004,-0.00000017,-0.00101963,-0.00003133,-0.000008
 96,-0.02492895,0.00002414,0.00000788,0.02857784\\-0.00000041,0.0000013
 7,0.00000052,0.00000017,0.00000106,-0.00000028,-0.00000002,0.00000122,
 -0.00000023,-0.00000055,0.00000055,0.,0.00000063,0.00000064,0.,-0.0000
 0065,-0.00000003,0.,0.00000018,-0.00000008,-0.00000038,0.00000066,-0.0
 0000086,0.00000015,0.00000050,-0.00000058,0.00000013,-0.00000050,-0.00
 000104,-0.00000012,-0.00000044,-0.00000108,0.00000012,-0.00000032,-0.0
 0000155,0.,-0.00000047,-0.00000007,0.00000006,0.00000083,0.00000048,0.
 00000009,0.00000039,-0.00000001,-0.00000006\\\@


 IF YOU DON'T HAVE THE LAW - ARGUE THE FACTS.
 IF YOU DON'T HAVE THE FACTS - ARGUE THE LAW.
 IF YOU DON'T HAVE EITHER - POUND THE TABLE.
 Job cpu time:       0 days  9 hours 29 minutes 53.5 seconds.
 Elapsed time:       0 days  1 hours 21 minutes 26.6 seconds.
 File lengths (MBytes):  RWF=    358 Int=      0 D2E=      0 Chk=     24 Scr=      1
 Normal termination of Gaussian 16 at Fri Nov 26 11:15:05 2021.
