 Entering Gaussian System, Link 0=/home/artemiy/opt/gaussian/g16/g16
 Input=1,1,1,6,6,6-Hexacyanohexyne-3_G4.gjf
 Output=1,1,1,6,6,6-Hexacyanohexyne-3_G4.log
 Initial command:
 /home/artemiy/opt/gaussian/g16/l1.exe "/home/artemiy/opt/gaussian/scr/Gau-12100.inp" -scrdir="/home/artemiy/opt/gaussian/scr/"
 Entering Link 1 = /home/artemiy/opt/gaussian/g16/l1.exe PID=     12103.
  
 Copyright (c) 1988,1990,1992,1993,1995,1998,2003,2009,2016,
            Gaussian, Inc.  All Rights Reserved.
  
 This is part of the Gaussian(R) 16 program.  It is based on
 the Gaussian(R) 09 system (copyright 2009, Gaussian, Inc.),
 the Gaussian(R) 03 system (copyright 2003, Gaussian, Inc.),
 the Gaussian(R) 98 system (copyright 1998, Gaussian, Inc.),
 the Gaussian(R) 94 system (copyright 1995, Gaussian, Inc.),
 the Gaussian 92(TM) system (copyright 1992, Gaussian, Inc.),
 the Gaussian 90(TM) system (copyright 1990, Gaussian, Inc.),
 the Gaussian 88(TM) system (copyright 1988, Gaussian, Inc.),
 the Gaussian 86(TM) system (copyright 1986, Carnegie Mellon
 University), and the Gaussian 82(TM) system (copyright 1983,
 Carnegie Mellon University). Gaussian is a federally registered
 trademark of Gaussian, Inc.
  
 This software contains proprietary and confidential information,
 including trade secrets, belonging to Gaussian, Inc.
  
 This software is provided under written license and may be
 used, copied, transmitted, or stored only in accord with that
 written license.
  
 The following legend is applicable only to US Government
 contracts under FAR:
  
                    RESTRICTED RIGHTS LEGEND
  
 Use, reproduction and disclosure by the US Government is
 subject to restrictions as set forth in subparagraphs (a)
 and (c) of the Commercial Computer Software - Restricted
 Rights clause in FAR 52.227-19.
  
 Gaussian, Inc.
 340 Quinnipiac St., Bldg. 40, Wallingford CT 06492
  
  
 ---------------------------------------------------------------
 Warning -- This program may not be used in any manner that
 competes with the business of Gaussian, Inc. or will provide
 assistance to any competitor of Gaussian, Inc.  The licensee
 of this program is prohibited from giving any competitor of
 Gaussian, Inc. access to this program.  By using this program,
 the user acknowledges that Gaussian, Inc. is engaged in the
 business of creating and licensing software in the field of
 computational chemistry and represents and warrants to the
 licensee that it is not a competitor of Gaussian, Inc. and that
 it will not use this program in any manner prohibited above.
 ---------------------------------------------------------------
  

 Cite this work as:
 Gaussian 16, Revision A.03,
 M. J. Frisch, G. W. Trucks, H. B. Schlegel, G. E. Scuseria, 
 M. A. Robb, J. R. Cheeseman, G. Scalmani, V. Barone, 
 G. A. Petersson, H. Nakatsuji, X. Li, M. Caricato, A. V. Marenich, 
 J. Bloino, B. G. Janesko, R. Gomperts, B. Mennucci, H. P. Hratchian, 
 J. V. Ortiz, A. F. Izmaylov, J. L. Sonnenberg, D. Williams-Young, 
 F. Ding, F. Lipparini, F. Egidi, J. Goings, B. Peng, A. Petrone, 
 T. Henderson, D. Ranasinghe, V. G. Zakrzewski, J. Gao, N. Rega, 
 G. Zheng, W. Liang, M. Hada, M. Ehara, K. Toyota, R. Fukuda, 
 J. Hasegawa, M. Ishida, T. Nakajima, Y. Honda, O. Kitao, H. Nakai, 
 T. Vreven, K. Throssell, J. A. Montgomery, Jr., J. E. Peralta, 
 F. Ogliaro, M. J. Bearpark, J. J. Heyd, E. N. Brothers, K. N. Kudin, 
 V. N. Staroverov, T. A. Keith, R. Kobayashi, J. Normand, 
 K. Raghavachari, A. P. Rendell, J. C. Burant, S. S. Iyengar, 
 J. Tomasi, M. Cossi, J. M. Millam, M. Klene, C. Adamo, R. Cammi, 
 J. W. Ochterski, R. L. Martin, K. Morokuma, O. Farkas, 
 J. B. Foresman, and D. J. Fox, Gaussian, Inc., Wallingford CT, 2016.
 
 ******************************************
 Gaussian 16:  ES64L-G16RevA.03 25-Dec-2016
                22-Jun-2022 
 ******************************************
 %mem=100GB
 %nprocshared=10
 Will use up to   10 processors via shared memory.
 -------------
 # g4 geom=gic
 -------------
 1/18=20,19=15,26=3,38=1,145=2/1,3;
 2/9=110,12=2,17=6,18=5,40=1/2;
 3/5=35,7=104,11=2,25=1,30=1,71=1,74=-5/1,2,3;
 4//1;
 5/5=2,38=5/2;
 6/7=2,8=2,9=2,10=2,28=1/1;
 7//1,2,3,16;
 1/18=20,19=15,26=3,145=2/3(2);
 2/9=110/2;
 99//99;
 2/9=110/2;
 3/5=35,7=104,11=2,25=1,30=1,71=1,74=-5/1,2,3;
 4/5=5,16=3,69=1/1;
 5/5=2,38=5/2;
 7//1,2,3,16;
 1/18=20,19=15,26=3,145=2/3(-5);
 2/9=110/2;
 6/7=2,8=2,9=2,10=2,19=2,28=1/1;
 99/9=1/99;
 -------------------
 CAS 10350-89-7
 -------------------
 Symbolic Z-matrix:
 Charge =  0 Multiplicity = 1
 C                     2.98287  -0.00001  -0.0066 
 C                     1.79482  -0.00002  -1.02172 
 H                     1.89983   0.88699  -1.6566 
 H                     1.89979  -0.88707  -1.65654 
 C                     2.90271  -1.2016    0.84231 
 C                     4.25396  -0.00005  -0.75113 
 C                     2.90275   1.20165   0.84223 
 N                     2.81389   2.17361   1.50762 
 N                     2.81382  -2.17352   1.50775 
 N                     5.24547  -0.00009  -1.39331 
 C                     0.52417   0.00003  -0.31322 
 C                    -0.52418   0.00003   0.31322 
 C                    -1.79483  -0.00002   1.02172 
 H                    -1.89983   0.88699   1.6566 
 H                    -1.89979  -0.88707   1.65654 
 C                    -2.98287  -0.00001   0.0066 
 C                    -2.90271  -1.2016   -0.84231 
 C                    -4.25396  -0.00005   0.75113 
 C                    -2.90275   1.20165  -0.84223 
 N                    -5.24547  -0.00009   1.3933 
 N                    -2.81388   2.17361  -1.50762 
 N                    -2.81382  -2.17352  -1.50775 
 
 Initializing the GIC definitions file.

 GradGradGradGradGradGradGradGradGradGradGradGradGradGradGradGradGradGrad
 Berny optimization.
 Initialization pass.
                           ----------------------------
                           !    Initial Parameters    !
                           ! (Angstroms and Degrees)  !
 --------------------------                            --------------------------
 ! Name  Definition              Value          Derivative Info.                !
 --------------------------------------------------------------------------------
 ! R1    R(1,2)                  1.5627         estimate D2E/DX2                !
 ! R2    R(1,5)                  1.4734         estimate D2E/DX2                !
 ! R3    R(1,6)                  1.4731         estimate D2E/DX2                !
 ! R4    R(1,7)                  1.4734         estimate D2E/DX2                !
 ! R5    R(2,3)                  1.0958         estimate D2E/DX2                !
 ! R6    R(2,4)                  1.0958         estimate D2E/DX2                !
 ! R7    R(2,11)                 1.4548         estimate D2E/DX2                !
 ! R8    R(5,9)                  1.1812         estimate D2E/DX2                !
 ! R9    R(6,10)                 1.1813         estimate D2E/DX2                !
 ! R10   R(7,8)                  1.1812         estimate D2E/DX2                !
 ! R11   R(11,12)                1.2213         estimate D2E/DX2                !
 ! R12   R(12,13)                1.4548         estimate D2E/DX2                !
 ! R13   R(13,14)                1.0958         estimate D2E/DX2                !
 ! R14   R(13,15)                1.0958         estimate D2E/DX2                !
 ! R15   R(13,16)                1.5627         estimate D2E/DX2                !
 ! R16   R(16,17)                1.4734         estimate D2E/DX2                !
 ! R17   R(16,18)                1.4731         estimate D2E/DX2                !
 ! R18   R(16,19)                1.4734         estimate D2E/DX2                !
 ! R19   R(17,22)                1.1812         estimate D2E/DX2                !
 ! R20   R(18,20)                1.1813         estimate D2E/DX2                !
 ! R21   R(19,21)                1.1812         estimate D2E/DX2                !
 ! A1    A(2,1,5)              109.4455         estimate D2E/DX2                !
 ! A2    A(2,1,6)              109.1285         estimate D2E/DX2                !
 ! A3    A(2,1,7)              109.4454         estimate D2E/DX2                !
 ! A4    A(5,1,6)              109.7624         estimate D2E/DX2                !
 ! A5    A(5,1,7)              109.2827         estimate D2E/DX2                !
 ! A6    A(6,1,7)              109.7624         estimate D2E/DX2                !
 ! A7    A(1,2,3)              107.6675         estimate D2E/DX2                !
 ! A8    A(1,2,4)              107.6681         estimate D2E/DX2                !
 ! A9    A(1,2,11)             110.3442         estimate D2E/DX2                !
 ! A10   A(3,2,4)              108.0839         estimate D2E/DX2                !
 ! A11   A(3,2,11)             111.4574         estimate D2E/DX2                !
 ! A12   A(4,2,11)             111.4571         estimate D2E/DX2                !
 ! A13   L(1,5,9,20,-1)        178.9304         estimate D2E/DX2                !
 ! A14   L(1,5,9,20,-2)        179.0022         estimate D2E/DX2                !
 ! A15   L(1,6,10,3,-1)        177.6491         estimate D2E/DX2                !
 ! A16   L(1,6,10,3,-2)        181.2678         estimate D2E/DX2                !
 ! A17   L(1,7,8,20,-1)        178.9303         estimate D2E/DX2                !
 ! A18   L(1,7,8,20,-2)        180.9976         estimate D2E/DX2                !
 ! A19   L(2,11,12,8,-1)       178.6596         estimate D2E/DX2                !
 ! A20   L(2,11,12,8,-2)       181.1227         estimate D2E/DX2                !
 ! A21   L(11,12,13,21,-1)     178.6595         estimate D2E/DX2                !
 ! A22   L(11,12,13,21,-2)     178.8773         estimate D2E/DX2                !
 ! A23   A(12,13,14)           111.4574         estimate D2E/DX2                !
 ! A24   A(12,13,15)           111.457          estimate D2E/DX2                !
 ! A25   A(12,13,16)           110.3443         estimate D2E/DX2                !
 ! A26   A(14,13,15)           108.0838         estimate D2E/DX2                !
 ! A27   A(14,13,16)           107.6676         estimate D2E/DX2                !
 ! A28   A(15,13,16)           107.6681         estimate D2E/DX2                !
 ! A29   A(13,16,17)           109.4455         estimate D2E/DX2                !
 ! A30   A(13,16,18)           109.1286         estimate D2E/DX2                !
 ! A31   A(13,16,19)           109.4453         estimate D2E/DX2                !
 ! A32   A(17,16,18)           109.7624         estimate D2E/DX2                !
 ! A33   A(17,16,19)           109.2827         estimate D2E/DX2                !
 ! A34   A(18,16,19)           109.7624         estimate D2E/DX2                !
 ! A35   L(16,17,22,10,-1)     178.9304         estimate D2E/DX2                !
 ! A36   L(16,17,22,10,-2)     179.0022         estimate D2E/DX2                !
 ! A37   L(16,18,20,14,-1)     177.6491         estimate D2E/DX2                !
 ! A38   L(16,18,20,14,-2)     181.2677         estimate D2E/DX2                !
 ! A39   L(16,19,21,10,-1)     178.9302         estimate D2E/DX2                !
 ! A40   L(16,19,21,10,-2)     180.9976         estimate D2E/DX2                !
 ! D1    D(5,1,2,3)           -178.29           estimate D2E/DX2                !
 ! D2    D(5,1,2,4)            -61.9716         estimate D2E/DX2                !
 ! D3    D(5,1,2,11)            59.8692         estimate D2E/DX2                !
 ! D4    D(6,1,2,3)            -58.1589         estimate D2E/DX2                !
 ! D5    D(6,1,2,4)             58.1595         estimate D2E/DX2                !
 ! D6    D(6,1,2,11)          -179.9997         estimate D2E/DX2                !
 ! D7    D(7,1,2,3)             61.9722         estimate D2E/DX2                !
 ! D8    D(7,1,2,4)            178.2905         estimate D2E/DX2                !
 ! D9    D(7,1,2,11)           -59.8687         estimate D2E/DX2                !
 ! D10   D(1,2,13,14)           60.5999         estimate D2E/DX2                !
 ! D11   D(1,2,13,15)          -60.6035         estimate D2E/DX2                !
 ! D12   D(1,2,13,16)          179.9991         estimate D2E/DX2                !
 ! D13   D(3,2,13,14)          -58.7993         estimate D2E/DX2                !
 ! D14   D(3,2,13,15)          179.9974         estimate D2E/DX2                !
 ! D15   D(3,2,13,16)           60.6            estimate D2E/DX2                !
 ! D16   D(4,2,13,14)          179.9973         estimate D2E/DX2                !
 ! D17   D(4,2,13,15)           58.794          estimate D2E/DX2                !
 ! D18   D(4,2,13,16)          -60.6034         estimate D2E/DX2                !
 ! D19   D(12,13,16,17)         59.8691         estimate D2E/DX2                !
 ! D20   D(12,13,16,18)       -179.9998         estimate D2E/DX2                !
 ! D21   D(12,13,16,19)        -59.8687         estimate D2E/DX2                !
 ! D22   D(14,13,16,17)       -178.29           estimate D2E/DX2                !
 ! D23   D(14,13,16,18)        -58.1588         estimate D2E/DX2                !
 ! D24   D(14,13,16,19)         61.9722         estimate D2E/DX2                !
 ! D25   D(15,13,16,17)        -61.9716         estimate D2E/DX2                !
 ! D26   D(15,13,16,18)         58.1595         estimate D2E/DX2                !
 ! D27   D(15,13,16,19)        178.2906         estimate D2E/DX2                !
 --------------------------------------------------------------------------------
 Trust Radius=3.00D-01 FncErr=1.00D-07 GrdErr=1.00D-06 EigMax=2.50D+02 EigMin=1.00D-04
 Number of steps in this run=     98 maximum allowed number of steps=    132.
 GradGradGradGradGradGradGradGradGradGradGradGradGradGradGradGradGradGrad

                          Input orientation:                          
 ---------------------------------------------------------------------
 Center     Atomic      Atomic             Coordinates (Angstroms)
 Number     Number       Type             X           Y           Z
 ---------------------------------------------------------------------
      1          6           0        2.982866   -0.000005   -0.006602
      2          6           0        1.794824   -0.000017   -1.021722
      3          1           0        1.899832    0.886987   -1.656599
      4          1           0        1.899788   -0.887066   -1.656542
      5          6           0        2.902709   -1.201598    0.842305
      6          6           0        4.253958   -0.000048   -0.751134
      7          6           0        2.902746    1.201645    0.842229
      8          7           0        2.813885    2.173607    1.507616
      9          7           0        2.813820   -2.173518    1.507749
     10          7           0        5.245470   -0.000085   -1.393306
     11          6           0        0.524174    0.000032   -0.313220
     12          6           0       -0.524175    0.000032    0.313223
     13          6           0       -1.794826   -0.000016    1.021723
     14          1           0       -1.899834    0.886987    1.656601
     15          1           0       -1.899790   -0.887066    1.656544
     16          6           0       -2.982867   -0.000005    0.006602
     17          6           0       -2.902708   -1.201598   -0.842305
     18          6           0       -4.253959   -0.000049    0.751132
     19          6           0       -2.902746    1.201645   -0.842229
     20          7           0       -5.245472   -0.000085    1.393303
     21          7           0       -2.813883    2.173607   -1.507616
     22          7           0       -2.813818   -2.173518   -1.507749
 ---------------------------------------------------------------------
                    Distance matrix (angstroms):
                    1          2          3          4          5
     1  C    0.000000
     2  C    1.562662   0.000000
     3  H    2.163841   1.095843   0.000000
     4  H    2.163848   1.095842   1.774053   0.000000
     5  C    1.473395   2.479073   3.407708   2.710907   0.000000
     6  C    1.473093   2.473976   2.673688   2.673702   2.410113
     7  C    1.473396   2.479072   2.710902   3.407711   2.403243
     8  N    2.654430   3.487216   3.535978   4.496130   3.441299
     9  N    2.654429   3.487217   4.496128   3.535979   1.181247
    10  N    2.653738   3.470595   3.471241   3.471256   3.454000
    11  C    2.477737   1.454829   2.117496   2.117492   2.904579
    12  C    3.521594   2.675787   3.246952   3.246924   3.669792
    13  C    4.887105   4.130527   4.648729   4.648670   4.852095
    14  H    5.233905   4.648730   5.041305   5.344278   5.299970
    15  H    5.233857   4.648670   5.344278   5.041164   4.881179
    16  C    5.965748   4.887104   5.233903   5.233856   6.064836
    17  C    6.064834   4.852092   5.299967   4.881176   6.044897
    18  C    7.276386   6.303236   6.667319   6.667255   7.257405
    19  C    6.064871   4.852151   4.881287   5.300014   6.505116
    20  N    8.346573   7.442991   7.819474   7.819401   8.254701
    21  N    6.370238   5.118683   4.888425   5.622152   7.042270
    22  N    6.370176   5.118585   5.622041   4.888270   6.256681
                    6          7          8          9         10
     6  C    0.000000
     7  C    2.410113   0.000000
     8  N    3.449716   1.181248   0.000000
     9  N    3.449713   3.441301   4.347125   0.000000
    10  N    1.181305   3.454002   4.364962   4.364957   0.000000
    11  C    3.755404   2.904572   3.644537   3.644548   4.843266
    12  C    4.895244   3.669810   4.158563   4.158536   6.016730
    13  C    6.303238   4.852153   5.118686   5.118589   7.442992
    14  H    6.667321   4.881289   4.888429   5.622044   7.819476
    15  H    6.667258   5.300016   5.622155   4.888274   7.819403
    16  C    7.276386   6.064872   6.370241   6.370179   8.346572
    17  C    7.257403   6.505116   7.042270   6.256682   8.254698
    18  C    8.639529   7.257465   7.433133   7.433030   9.738468
    19  C    7.257464   6.044926   6.256705   7.042247   8.254772
    20  N    9.738469   8.254774   8.348128   8.348000  10.854725
    21  N    7.433130   6.256703   6.384622   7.724051   8.348124
    22  N    7.433027   7.042246   7.724051   6.384633   8.347996
                   11         12         13         14         15
    11  C    0.000000
    12  C    1.221256   0.000000
    13  C    2.675787   1.454829   0.000000
    14  H    3.246952   2.117496   1.095843   0.000000
    15  H    3.246924   2.117492   1.095843   1.774053   0.000000
    16  C    3.521594   2.477737   1.562662   2.163842   2.163849
    17  C    3.669791   2.904579   2.479073   3.407708   2.710908
    18  C    4.895243   3.755403   2.473975   2.673689   2.673702
    19  C    3.669810   2.904573   2.479071   2.710903   3.407712
    20  N    6.016730   4.843265   3.470595   3.471241   3.471256
    21  N    4.158562   3.644536   3.487215   3.535979   4.496131
    22  N    4.158535   3.644547   3.487217   4.496128   3.535980
                   16         17         18         19         20
    16  C    0.000000
    17  C    1.473395   0.000000
    18  C    1.473092   2.410112   0.000000
    19  C    1.473396   2.403243   2.410113   0.000000
    20  N    2.653737   3.454001   1.181305   3.454001   0.000000
    21  N    2.654430   3.441299   3.449716   1.181248   4.364962
    22  N    2.654429   1.181247   3.449713   3.441301   4.364958
                   21         22
    21  N    0.000000
    22  N    4.347125   0.000000
 Stoichiometry    C12H4N6
 Framework group  C1[X(C12H4N6)]
 Deg. of freedom    60
 Full point group                 C1      NOp   1
 Largest Abelian subgroup         C1      NOp   1
 Largest concise Abelian subgroup C1      NOp   1
                         Standard orientation:                         
 ---------------------------------------------------------------------
 Center     Atomic      Atomic             Coordinates (Angstroms)
 Number     Number       Type             X           Y           Z
 ---------------------------------------------------------------------
      1          6           0       -2.982866   -0.000005    0.006602
      2          6           0       -1.794824   -0.000017    1.021722
      3          1           0       -1.899832    0.886987    1.656599
      4          1           0       -1.899788   -0.887066    1.656542
      5          6           0       -2.902709   -1.201598   -0.842305
      6          6           0       -4.253958   -0.000048    0.751134
      7          6           0       -2.902746    1.201645   -0.842229
      8          7           0       -2.813885    2.173607   -1.507616
      9          7           0       -2.813820   -2.173518   -1.507749
     10          7           0       -5.245470   -0.000085    1.393306
     11          6           0       -0.524174    0.000032    0.313220
     12          6           0        0.524175    0.000032   -0.313223
     13          6           0        1.794826   -0.000016   -1.021723
     14          1           0        1.899834    0.886987   -1.656601
     15          1           0        1.899790   -0.887066   -1.656544
     16          6           0        2.982867   -0.000005   -0.006602
     17          6           0        2.902708   -1.201598    0.842305
     18          6           0        4.253959   -0.000049   -0.751132
     19          6           0        2.902746    1.201645    0.842229
     20          7           0        5.245472   -0.000085   -1.393303
     21          7           0        2.813883    2.173607    1.507616
     22          7           0        2.813818   -2.173518    1.507749
 ---------------------------------------------------------------------
 Rotational constants (GHZ):           0.8356374           0.1919710           0.1870387
 Standard basis: GTBas3 (6D, 7F)
 There are   578 symmetry adapted cartesian basis functions of A   symmetry.
 There are   524 symmetry adapted basis functions of A   symmetry.
   524 basis functions,   820 primitive gaussians,   578 cartesian basis functions
    59 alpha electrons       59 beta electrons
       nuclear repulsion energy       998.8586401619 Hartrees.
 NAtoms=   22 NActive=   22 NUniq=   22 SFac= 1.00D+00 NAtFMM=   60 NAOKFM=F Big=F
 Integral buffers will be    131072 words long.
 Raffenetti 2 integral format.
 Two-electron integral symmetry is turned on.
 One-electron integrals computed using PRISM.
 NBasis=   524 RedAO= T EigKep=  5.24D-05  NBF=   524
 NBsUse=   524 1.00D-06 EigRej= -1.00D+00 NBFU=   524
 ExpMin= 1.61D-01 ExpMax= 4.17D+03 ExpMxC= 6.27D+02 IAcc=3 IRadAn=         5 AccDes= 0.00D+00
 Harris functional with IExCor=  402 and IRadAn=       5 diagonalized for initial guess.
 HarFok:  IExCor=  402 AccDes= 0.00D+00 IRadAn=         5 IDoV= 1 UseB2=F ITyADJ=14
 ICtDFT=  3500011 ScaDFX=  1.000000  1.000000  1.000000  1.000000
 FoFCou: FMM=F IPFlag=           0 FMFlag=      100000 FMFlg1=           0
         NFxFlg=           0 DoJE=T BraDBF=F KetDBF=T FulRan=T
         wScrn=  0.000000 ICntrl=       500 IOpCl=  0 I1Cent=   200000004 NGrid=           0
         NMat0=    1 NMatS0=      1 NMatT0=    0 NMatD0=    1 NMtDS0=    0 NMtDT0=    0
 Petite list used in FoFCou.
 Requested convergence on RMS density matrix=1.00D-08 within 128 cycles.
 Requested convergence on MAX density matrix=1.00D-06.
 Requested convergence on             energy=1.00D-06.
 No special actions if energy rises.
 Integral accuracy reduced to 1.0D-05 until final iterations.
 Initial convergence to 1.0D-05 achieved.  Increase integral accuracy.
 SCF Done:  E(RB3LYP) =  -787.979715507     A.U. after   13 cycles
            NFock= 13  Conv=0.39D-08     -V/T= 2.0083

 **********************************************************************

            Population analysis using the SCF density.

 **********************************************************************

 Orbital symmetries:
       Occupied  (A) (A) (A) (A) (A) (A) (A) (A) (A) (A) (A) (A)
                 (A) (A) (A) (A) (A) (A) (A) (A) (A) (A) (A) (A)
                 (A) (A) (A) (A) (A) (A) (A) (A) (A) (A) (A) (A)
                 (A) (A) (A) (A) (A) (A) (A) (A) (A) (A) (A) (A)
                 (A) (A) (A) (A) (A) (A) (A) (A) (A) (A) (A)
       Virtual   (A) (A) (A) (A) (A) (A) (A) (A) (A) (A) (A) (A)
                 (A) (A) (A) (A) (A) (A) (A) (A) (A) (A) (A) (A)
                 (A) (A) (A) (A) (A) (A) (A) (A) (A) (A) (A) (A)
                 (A) (A) (A) (A) (A) (A) (A) (A) (A) (A) (A) (A)
                 (A) (A) (A) (A) (A) (A) (A) (A) (A) (A) (A) (A)
                 (A) (A) (A) (A) (A) (A) (A) (A) (A) (A) (A) (A)
                 (A) (A) (A) (A) (A) (A) (A) (A) (A) (A) (A) (A)
                 (A) (A) (A) (A) (A) (A) (A) (A) (A) (A) (A) (A)
                 (A) (A) (A) (A) (A) (A) (A) (A) (A) (A) (A) (A)
                 (A) (A) (A) (A) (A) (A) (A) (A) (A) (A) (A) (A)
                 (A) (A) (A) (A) (A) (A) (A) (A) (A) (A) (A) (A)
                 (A) (A) (A) (A) (A) (A) (A) (A) (A) (A) (A) (A)
                 (A) (A) (A) (A) (A) (A) (A) (A) (A) (A) (A) (A)
                 (A) (A) (A) (A) (A) (A) (A) (A) (A) (A) (A) (A)
                 (A) (A) (A) (A) (A) (A) (A) (A) (A) (A) (A) (A)
                 (A) (A) (A) (A) (A) (A) (A) (A) (A) (A) (A) (A)
                 (A) (A) (A) (A) (A) (A) (A) (A) (A) (A) (A) (A)
                 (A) (A) (A) (A) (A) (A) (A) (A) (A) (A) (A) (A)
                 (A) (A) (A) (A) (A) (A) (A) (A) (A) (A) (A) (A)
                 (A) (A) (A) (A) (A) (A) (A) (A) (A) (A) (A) (A)
                 (A) (A) (A) (A) (A) (A) (A) (A) (A) (A) (A) (A)
                 (A) (A) (A) (A) (A) (A) (A) (A) (A) (A) (A) (A)
                 (A) (A) (A) (A) (A) (A) (A) (A) (A) (A) (A) (A)
                 (A) (A) (A) (A) (A) (A) (A) (A) (A) (A) (A) (A)
                 (A) (A) (A) (A) (A) (A) (A) (A) (A) (A) (A) (A)
                 (A) (A) (A) (A) (A) (A) (A) (A) (A) (A) (A) (A)
                 (A) (A) (A) (A) (A) (A) (A) (A) (A) (A) (A) (A)
                 (A) (A) (A) (A) (A) (A) (A) (A) (A) (A) (A) (A)
                 (A) (A) (A) (A) (A) (A) (A) (A) (A) (A) (A) (A)
                 (A) (A) (A) (A) (A) (A) (A) (A) (A) (A) (A) (A)
                 (A) (A) (A) (A) (A) (A) (A) (A) (A) (A) (A) (A)
                 (A) (A) (A) (A) (A) (A) (A) (A) (A) (A) (A) (A)
                 (A) (A) (A) (A) (A) (A) (A) (A) (A) (A) (A) (A)
                 (A) (A) (A) (A) (A) (A) (A) (A) (A) (A) (A) (A)
                 (A) (A) (A) (A) (A) (A) (A) (A) (A) (A) (A) (A)
                 (A) (A) (A) (A) (A) (A) (A) (A) (A) (A) (A) (A)
                 (A) (A) (A) (A) (A) (A) (A) (A) (A) (A) (A) (A)
                 (A) (A) (A) (A) (A) (A) (A) (A) (A) (A) (A) (A)
                 (A) (A) (A) (A) (A) (A) (A) (A) (A)
 The electronic state is 1-A.
 Alpha  occ. eigenvalues --  -14.39933 -14.39933 -14.39700 -14.39700 -14.39697
 Alpha  occ. eigenvalues --  -14.39697 -10.37358 -10.37358 -10.29745 -10.29744
 Alpha  occ. eigenvalues --  -10.28944 -10.28944 -10.28772 -10.28772 -10.28772
 Alpha  occ. eigenvalues --  -10.28772 -10.25172 -10.24957  -0.98332  -0.98265
 Alpha  occ. eigenvalues --   -0.94686  -0.94682  -0.94527  -0.94527  -0.90961
 Alpha  occ. eigenvalues --   -0.90624  -0.83405  -0.79678  -0.73570  -0.65924
 Alpha  occ. eigenvalues --   -0.65328  -0.65281  -0.65196  -0.56467  -0.54024
 Alpha  occ. eigenvalues --   -0.52935  -0.50591  -0.50290  -0.49227  -0.42194
 Alpha  occ. eigenvalues --   -0.42173  -0.41906  -0.41883  -0.41864  -0.41811
 Alpha  occ. eigenvalues --   -0.39866  -0.39803  -0.39715  -0.39705  -0.38301
 Alpha  occ. eigenvalues --   -0.37839  -0.37686  -0.37684  -0.37645  -0.37634
 Alpha  occ. eigenvalues --   -0.37307  -0.37288  -0.32591  -0.31835
 Alpha virt. eigenvalues --   -0.07063  -0.06508  -0.06131  -0.05791  -0.05652
 Alpha virt. eigenvalues --   -0.05637  -0.03671  -0.01518  -0.01121  -0.00932
 Alpha virt. eigenvalues --   -0.00276   0.00427   0.03558   0.04568   0.04572
 Alpha virt. eigenvalues --    0.05971   0.09259   0.09384   0.10018   0.10677
 Alpha virt. eigenvalues --    0.12558   0.13011   0.15396   0.15688   0.17547
 Alpha virt. eigenvalues --    0.17648   0.19893   0.21932   0.29142   0.29942
 Alpha virt. eigenvalues --    0.30260   0.31155   0.32165   0.33295   0.36767
 Alpha virt. eigenvalues --    0.37113   0.40484   0.41342   0.42598   0.43200
 Alpha virt. eigenvalues --    0.45286   0.45461   0.45951   0.46362   0.46750
 Alpha virt. eigenvalues --    0.47109   0.47600   0.48270   0.49638   0.51100
 Alpha virt. eigenvalues --    0.52075   0.53928   0.55840   0.55883   0.56234
 Alpha virt. eigenvalues --    0.57666   0.57877   0.57955   0.58364   0.59516
 Alpha virt. eigenvalues --    0.59638   0.59721   0.60261   0.61193   0.61505
 Alpha virt. eigenvalues --    0.62211   0.63698   0.64428   0.64981   0.65086
 Alpha virt. eigenvalues --    0.65323   0.66962   0.67021   0.68363   0.68399
 Alpha virt. eigenvalues --    0.68429   0.68873   0.68960   0.70465   0.70585
 Alpha virt. eigenvalues --    0.70949   0.71244   0.71345   0.71904   0.72564
 Alpha virt. eigenvalues --    0.72660   0.73385   0.73543   0.74942   0.75832
 Alpha virt. eigenvalues --    0.76460   0.77354   0.77767   0.79285   0.80728
 Alpha virt. eigenvalues --    0.80941   0.81065   0.81171   0.82567   0.82790
 Alpha virt. eigenvalues --    0.83605   0.83993   0.84703   0.86243   0.86299
 Alpha virt. eigenvalues --    0.87328   0.87614   0.89395   0.89516   0.90382
 Alpha virt. eigenvalues --    0.92866   0.93508   0.94965   0.97588   0.98333
 Alpha virt. eigenvalues --    0.99169   1.01420   1.01813   1.02867   1.04844
 Alpha virt. eigenvalues --    1.06101   1.09755   1.10397   1.11379   1.11562
 Alpha virt. eigenvalues --    1.13247   1.18491   1.18579   1.18712   1.19712
 Alpha virt. eigenvalues --    1.21945   1.22220   1.23343   1.24594   1.27996
 Alpha virt. eigenvalues --    1.29378   1.29505   1.29983   1.30116   1.30216
 Alpha virt. eigenvalues --    1.31280   1.31831   1.32126   1.32865   1.33167
 Alpha virt. eigenvalues --    1.33914   1.35169   1.35974   1.36357   1.36430
 Alpha virt. eigenvalues --    1.37844   1.38710   1.43434   1.43759   1.43928
 Alpha virt. eigenvalues --    1.46655   1.47827   1.48710   1.51399   1.53562
 Alpha virt. eigenvalues --    1.57161   1.57687   1.59600   1.59871   1.59980
 Alpha virt. eigenvalues --    1.62714   1.64759   1.65489   1.66416   1.68490
 Alpha virt. eigenvalues --    1.68953   1.69589   1.74774   1.75056   1.75451
 Alpha virt. eigenvalues --    1.76673   1.78761   1.81391   1.81394   1.82814
 Alpha virt. eigenvalues --    1.83003   1.83240   1.83280   1.85070   1.86551
 Alpha virt. eigenvalues --    1.91186   1.91771   1.92856   1.94456   1.97244
 Alpha virt. eigenvalues --    1.99827   2.00350   2.07328   2.17039   2.22347
 Alpha virt. eigenvalues --    2.22676   2.24153   2.25464   2.28877   2.30804
 Alpha virt. eigenvalues --    2.32775   2.37808   2.40773   2.41259   2.46844
 Alpha virt. eigenvalues --    2.52936   2.54607   2.54813   2.55234   2.57093
 Alpha virt. eigenvalues --    2.59367   2.61981   2.62877   2.65353   2.65629
 Alpha virt. eigenvalues --    2.67753   2.68368   2.69273   2.69971   2.71368
 Alpha virt. eigenvalues --    2.71406   2.72121   2.72681   2.73664   2.74182
 Alpha virt. eigenvalues --    2.74550   2.75364   2.77612   2.78068   2.78995
 Alpha virt. eigenvalues --    2.79148   2.79371   2.79983   2.81080   2.81324
 Alpha virt. eigenvalues --    2.81754   2.82069   2.82805   2.83102   2.83265
 Alpha virt. eigenvalues --    2.84573   2.84943   2.88693   2.89492   2.94124
 Alpha virt. eigenvalues --    2.95520   2.96263   2.96880   3.01656   3.02933
 Alpha virt. eigenvalues --    3.04457   3.06138   3.06420   3.08585   3.10065
 Alpha virt. eigenvalues --    3.10377   3.15321   3.15622   3.16252   3.17886
 Alpha virt. eigenvalues --    3.19582   3.19786   3.20700   3.23199   3.26346
 Alpha virt. eigenvalues --    3.28655   3.29282   3.30640   3.34677   3.36861
 Alpha virt. eigenvalues --    3.41842   3.43609   3.44113   3.44908   3.47285
 Alpha virt. eigenvalues --    3.51371   3.52379   3.52415   3.55595   3.56366
 Alpha virt. eigenvalues --    3.60328   3.60573   3.60791   3.60953   3.61025
 Alpha virt. eigenvalues --    3.61123   3.61238   3.61268   3.61541   3.61670
 Alpha virt. eigenvalues --    3.61729   3.61861   3.61883   3.63254   3.65396
 Alpha virt. eigenvalues --    3.65970   3.66098   3.69191   3.69685   3.70439
 Alpha virt. eigenvalues --    3.70461   3.71313   3.71891   3.74976   3.76120
 Alpha virt. eigenvalues --    3.76474   3.76917   3.77004   3.77450   3.79958
 Alpha virt. eigenvalues --    3.82302   3.83798   3.86370   3.87192   3.87327
 Alpha virt. eigenvalues --    3.87980   3.89984   3.90152   3.91259   3.94723
 Alpha virt. eigenvalues --    3.97872   3.98907   3.99909   4.00095   4.02259
 Alpha virt. eigenvalues --    4.08439   4.08482   4.08623   4.08917   4.09122
 Alpha virt. eigenvalues --    4.09972   4.10928   4.10967   4.11183   4.11972
 Alpha virt. eigenvalues --    4.12435   4.12597   4.13163   4.13547   4.13570
 Alpha virt. eigenvalues --    4.14574   4.15957   4.17837   4.19371   4.19480
 Alpha virt. eigenvalues --    4.19619   4.21999   4.23158   4.23511   4.25427
 Alpha virt. eigenvalues --    4.25701   4.26066   4.26270   4.27701   4.30064
 Alpha virt. eigenvalues --    4.30537   4.30752   4.30777   4.31754   4.31851
 Alpha virt. eigenvalues --    4.32604   4.33826   4.34589   4.35573   4.37736
 Alpha virt. eigenvalues --    4.37751   4.38530   4.41002   4.41676   4.41746
 Alpha virt. eigenvalues --    4.44166   4.45096   4.47416   4.47851   4.48496
 Alpha virt. eigenvalues --    4.48959   4.50568   4.52270   4.58743   4.60018
 Alpha virt. eigenvalues --    4.67790   4.68262   4.69473   4.70144   4.72286
 Alpha virt. eigenvalues --    4.72984   4.73926   4.74179   4.74593   4.74849
 Alpha virt. eigenvalues --    4.75855   4.76360   4.79213   4.81190   4.81317
 Alpha virt. eigenvalues --    4.82611   4.82897   4.83741   4.85320   4.88212
 Alpha virt. eigenvalues --    4.91094   4.95510   4.98808   4.99480   4.99626
 Alpha virt. eigenvalues --    5.00908   5.01935   5.02253   5.03324   5.18527
 Alpha virt. eigenvalues --    5.19721   5.20326   5.20774   5.22214   5.22714
 Alpha virt. eigenvalues --    5.28294   5.30162   5.30375   5.30635   5.31042
 Alpha virt. eigenvalues --    5.31135   5.32230   5.33982   5.35411   5.36040
 Alpha virt. eigenvalues --    5.36263   5.41905   5.42835   5.52544   5.55024
 Alpha virt. eigenvalues --    6.05904   6.06236   6.22727   6.23263   6.23730
 Alpha virt. eigenvalues --    6.24537   6.35647   6.36106   6.86861   7.51416
 Alpha virt. eigenvalues --    8.01294   9.96241  10.26639  10.38267  10.90098
 Alpha virt. eigenvalues --   10.91926  10.93176  10.93529  11.23945  11.32519
 Alpha virt. eigenvalues --   11.32844  11.39015  11.40085  11.40104  11.40543
 Alpha virt. eigenvalues --   12.08199  12.40225  13.10499  13.18044  17.69322
 Alpha virt. eigenvalues --   17.70985  18.83929  18.87031  21.14771  21.23530
          Condensed to atoms (all electrons):
               1          2          3          4          5          6
     1  C    4.793311   0.378867  -0.019576  -0.019576   0.375641   0.397770
     2  C    0.378867   5.039604   0.357763   0.357767  -0.038802  -0.039521
     3  H   -0.019576   0.357763   0.521116  -0.028310   0.004549  -0.001275
     4  H   -0.019576   0.357767  -0.028310   0.521114  -0.006355  -0.001275
     5  C    0.375641  -0.038802   0.004549  -0.006355   4.430122  -0.033926
     6  C    0.397770  -0.039521  -0.001275  -0.001275  -0.033926   4.424660
     7  C    0.375640  -0.038801  -0.006355   0.004549  -0.053014  -0.033925
     8  N   -0.008735  -0.002302   0.000499  -0.000041  -0.004148  -0.004716
     9  N   -0.008735  -0.002302  -0.000041   0.000499   0.962365  -0.004716
    10  N    0.000133  -0.002285   0.000350   0.000350  -0.003978   0.959547
    11  C   -0.046246   0.426062  -0.018628  -0.018630   0.003162   0.004379
    12  C   -0.003526  -0.053420  -0.000973  -0.000975   0.004251  -0.000046
    13  C   -0.000004  -0.001780   0.000022   0.000022   0.000035   0.000000
    14  H    0.000006   0.000022   0.000009  -0.000004   0.000003  -0.000000
    15  H    0.000006   0.000022  -0.000004   0.000009  -0.000012  -0.000000
    16  C   -0.000004  -0.000004   0.000006   0.000006   0.000001   0.000000
    17  C    0.000001   0.000035   0.000003  -0.000012  -0.000001   0.000000
    18  C    0.000000   0.000000  -0.000000  -0.000000   0.000000  -0.000000
    19  C    0.000001   0.000035  -0.000012   0.000003  -0.000000   0.000000
    20  N   -0.000000  -0.000000   0.000000   0.000000   0.000000  -0.000000
    21  N    0.000000   0.000000   0.000012  -0.000000  -0.000000   0.000000
    22  N    0.000000   0.000000  -0.000000   0.000012  -0.000000   0.000000
               7          8          9         10         11         12
     1  C    0.375640  -0.008735  -0.008735   0.000133  -0.046246  -0.003526
     2  C   -0.038801  -0.002302  -0.002302  -0.002285   0.426062  -0.053420
     3  H   -0.006355   0.000499  -0.000041   0.000350  -0.018628  -0.000973
     4  H    0.004549  -0.000041   0.000499   0.000350  -0.018630  -0.000975
     5  C   -0.053014  -0.004148   0.962365  -0.003978   0.003162   0.004251
     6  C   -0.033925  -0.004716  -0.004716   0.959547   0.004379  -0.000046
     7  C    4.430122   0.962364  -0.004148  -0.003977   0.003162   0.004251
     8  N    0.962364   6.375939  -0.000040  -0.000036  -0.002123  -0.000027
     9  N   -0.004148  -0.000040   6.375939  -0.000036  -0.002123  -0.000027
    10  N   -0.003977  -0.000036  -0.000036   6.362503   0.000055  -0.000002
    11  C    0.003162  -0.002123  -0.002123   0.000055   4.776137   0.818385
    12  C    0.004251  -0.000027  -0.000027  -0.000002   0.818385   4.776139
    13  C    0.000035   0.000000   0.000000  -0.000000  -0.053419   0.426061
    14  H   -0.000012   0.000012  -0.000000   0.000000  -0.000973  -0.018628
    15  H    0.000003  -0.000000   0.000012   0.000000  -0.000975  -0.018630
    16  C    0.000001   0.000000   0.000000  -0.000000  -0.003526  -0.046246
    17  C   -0.000000  -0.000000  -0.000000   0.000000   0.004251   0.003162
    18  C    0.000000   0.000000   0.000000  -0.000000  -0.000046   0.004379
    19  C   -0.000001  -0.000000  -0.000000   0.000000   0.004251   0.003162
    20  N    0.000000  -0.000000  -0.000000   0.000000  -0.000002   0.000055
    21  N   -0.000000   0.000000  -0.000000  -0.000000  -0.000027  -0.002123
    22  N   -0.000000  -0.000000   0.000000  -0.000000  -0.000027  -0.002123
              13         14         15         16         17         18
     1  C   -0.000004   0.000006   0.000006  -0.000004   0.000001   0.000000
     2  C   -0.001780   0.000022   0.000022  -0.000004   0.000035   0.000000
     3  H    0.000022   0.000009  -0.000004   0.000006   0.000003  -0.000000
     4  H    0.000022  -0.000004   0.000009   0.000006  -0.000012  -0.000000
     5  C    0.000035   0.000003  -0.000012   0.000001  -0.000001   0.000000
     6  C    0.000000  -0.000000  -0.000000   0.000000   0.000000  -0.000000
     7  C    0.000035  -0.000012   0.000003   0.000001  -0.000000   0.000000
     8  N    0.000000   0.000012  -0.000000   0.000000  -0.000000   0.000000
     9  N    0.000000  -0.000000   0.000012   0.000000  -0.000000   0.000000
    10  N   -0.000000   0.000000   0.000000  -0.000000   0.000000  -0.000000
    11  C   -0.053419  -0.000973  -0.000975  -0.003526   0.004251  -0.000046
    12  C    0.426061  -0.018628  -0.018630  -0.046246   0.003162   0.004379
    13  C    5.039605   0.357763   0.357767   0.378867  -0.038802  -0.039521
    14  H    0.357763   0.521116  -0.028310  -0.019576   0.004549  -0.001275
    15  H    0.357767  -0.028310   0.521114  -0.019576  -0.006355  -0.001275
    16  C    0.378867  -0.019576  -0.019576   4.793310   0.375640   0.397771
    17  C   -0.038802   0.004549  -0.006355   0.375640   4.430123  -0.033926
    18  C   -0.039521  -0.001275  -0.001275   0.397771  -0.033926   4.424660
    19  C   -0.038801  -0.006355   0.004549   0.375640  -0.053014  -0.033925
    20  N   -0.002285   0.000350   0.000350   0.000133  -0.003978   0.959547
    21  N   -0.002302   0.000499  -0.000041  -0.008735  -0.004148  -0.004716
    22  N   -0.002302  -0.000041   0.000499  -0.008735   0.962365  -0.004716
              19         20         21         22
     1  C    0.000001  -0.000000   0.000000   0.000000
     2  C    0.000035  -0.000000   0.000000   0.000000
     3  H   -0.000012   0.000000   0.000012  -0.000000
     4  H    0.000003   0.000000  -0.000000   0.000012
     5  C   -0.000000   0.000000  -0.000000  -0.000000
     6  C    0.000000  -0.000000   0.000000   0.000000
     7  C   -0.000001   0.000000  -0.000000  -0.000000
     8  N   -0.000000  -0.000000   0.000000  -0.000000
     9  N   -0.000000  -0.000000  -0.000000   0.000000
    10  N    0.000000   0.000000  -0.000000  -0.000000
    11  C    0.004251  -0.000002  -0.000027  -0.000027
    12  C    0.003162   0.000055  -0.002123  -0.002123
    13  C   -0.038801  -0.002285  -0.002302  -0.002302
    14  H   -0.006355   0.000350   0.000499  -0.000041
    15  H    0.004549   0.000350  -0.000041   0.000499
    16  C    0.375640   0.000133  -0.008735  -0.008735
    17  C   -0.053014  -0.003978  -0.004148   0.962365
    18  C   -0.033925   0.959547  -0.004716  -0.004716
    19  C    4.430123  -0.003978   0.962364  -0.004148
    20  N   -0.003978   6.362503  -0.000036  -0.000036
    21  N    0.962364  -0.000036   6.375939  -0.000040
    22  N   -0.004148  -0.000036  -0.000040   6.375939
 Mulliken charges:
               1
     1  C   -0.214974
     2  C   -0.380958
     3  H    0.190846
     4  H    0.190848
     5  C    0.360107
     6  C    0.333044
     7  C    0.360108
     8  N   -0.316647
     9  N   -0.316648
    10  N   -0.312625
    11  C    0.106901
    12  C    0.106899
    13  C   -0.380958
    14  H    0.190846
    15  H    0.190848
    16  C   -0.214974
    17  C    0.360107
    18  C    0.333044
    19  C    0.360107
    20  N   -0.312625
    21  N   -0.316647
    22  N   -0.316648
 Sum of Mulliken charges =  -0.00000
 Mulliken charges with hydrogens summed into heavy atoms:
               1
     1  C   -0.214974
     2  C    0.000736
     5  C    0.360107
     6  C    0.333044
     7  C    0.360108
     8  N   -0.316647
     9  N   -0.316648
    10  N   -0.312625
    11  C    0.106901
    12  C    0.106899
    13  C    0.000736
    16  C   -0.214974
    17  C    0.360107
    18  C    0.333044
    19  C    0.360107
    20  N   -0.312625
    21  N   -0.316647
    22  N   -0.316648
 Electronic spatial extent (au):  <R**2>=           5616.9986
 Charge=             -0.0000 electrons
 Dipole moment (field-independent basis, Debye):
    X=              0.0000    Y=             -0.0001    Z=             -0.0000  Tot=              0.0001
 Quadrupole moment (field-independent basis, Debye-Ang):
   XX=           -130.9726   YY=           -117.9494   ZZ=           -106.9565
   XY=             -0.0000   XZ=             -4.9240   YZ=             -0.0000
 Traceless Quadrupole moment (field-independent basis, Debye-Ang):
   XX=            -12.3464   YY=              0.6768   ZZ=             11.6697
   XY=             -0.0000   XZ=             -4.9240   YZ=             -0.0000
 Octapole moment (field-independent basis, Debye-Ang**2):
  XXX=              0.0001  YYY=             -0.0042  ZZZ=             -0.0000  XYY=              0.0001
  XXY=              0.0021  XXZ=             -0.0000  XZZ=              0.0001  YZZ=              0.0025
  YYZ=              0.0000  XYZ=             -0.0012
 Hexadecapole moment (field-independent basis, Debye-Ang**3):
 XXXX=          -7393.0609 YYYY=          -1065.8547 ZZZZ=           -794.2880 XXXY=             -0.0000
 XXXZ=            394.8783 YYYX=              0.0000 YYYZ=             -0.0000 ZZZX=            -25.7243
 ZZZY=             -0.0000 XXYY=          -1297.0517 XXZZ=          -1324.7367 YYZZ=           -345.6265
 XXYZ=              0.0000 YYXZ=           -125.0787 ZZXY=              0.0000
 N-N= 9.988586401619D+02 E-N=-3.825843310055D+03  KE= 7.815225542492D+02
 Calling FoFJK, ICntrl=      2127 FMM=F ISym2X=0 I1Cent= 0 IOpClX= 0 NMat=1 NMatS=1 NMatT=0.
 ***** Axes restored to original set *****
 -------------------------------------------------------------------
 Center     Atomic                   Forces (Hartrees/Bohr)
 Number     Number              X              Y              Z
 -------------------------------------------------------------------
      1        6           0.003831569    0.000000148    0.002342552
      2        6          -0.007129021    0.000002103   -0.003130698
      3        1          -0.000388435   -0.000853044    0.000343263
      4        1          -0.000387868    0.000852616    0.000343286
      5        6          -0.003615739   -0.053229822    0.036869133
      6        6           0.053854167   -0.000002163   -0.034487622
      7        6          -0.003614301    0.053232230    0.036866425
      8        7           0.004811358   -0.050117105   -0.034496412
      9        7           0.004812640    0.050114453   -0.034498857
     10        7          -0.051140228    0.000001957    0.033171059
     11        6          -0.034321616   -0.000001387    0.016540266
     12        6           0.034321617   -0.000001263   -0.016540431
     13        6           0.007129137    0.000001070    0.003131448
     14        1           0.000388332   -0.000852842   -0.000343309
     15        1           0.000387850    0.000853254   -0.000343797
     16        6          -0.003831032    0.000000145   -0.002342832
     17        6           0.003615809   -0.053229945   -0.036869220
     18        6          -0.053855209   -0.000001984    0.034488183
     19        6           0.003614426    0.053232489   -0.036866616
     20        7           0.051140746    0.000001856   -0.033171313
     21        7          -0.004811510   -0.050117326    0.034496564
     22        7          -0.004812695    0.050114561    0.034498928
 -------------------------------------------------------------------
 Cartesian Forces:  Max     0.053855209 RMS     0.027634615

 GradGradGradGradGradGradGradGradGradGradGradGradGradGradGradGradGradGrad
 Berny optimization.
 FormGI is forming the generalized inverse of G from B-inverse, IUseBI=4.
 Internal  Forces:  Max     0.061031359 RMS     0.016612974
 Search for a local minimum.
 Step number   1 out of a maximum of   98
 All quantities printed in internal units (Hartrees-Bohrs-Radians)
 Mixed Optimization -- RFO/linear search
 Second derivative matrix not updated -- first step.
 ITU=  0
     Eigenvalues ---    0.00230   0.00230   0.00230   0.01007   0.01049
     Eigenvalues ---    0.03025   0.03147   0.03911   0.04585   0.04585
     Eigenvalues ---    0.04585   0.04585   0.04585   0.04585   0.04585
     Eigenvalues ---    0.04585   0.04585   0.04585   0.04585   0.04585
     Eigenvalues ---    0.05016   0.05049   0.05981   0.07960   0.08874
     Eigenvalues ---    0.08874   0.08894   0.08894   0.09495   0.11880
     Eigenvalues ---    0.12682   0.21897   0.21951   0.24999   0.25000
     Eigenvalues ---    0.25000   0.25000   0.25000   0.25000   0.26602
     Eigenvalues ---    0.26602   0.34146   0.34146   0.34146   0.34146
     Eigenvalues ---    0.35337   0.35337   0.35337   0.35337   0.35373
     Eigenvalues ---    0.35373   0.37619   0.37619   0.94829   1.14807
     Eigenvalues ---    1.14807   1.14840   1.14840   1.14840   1.14840
 RFO step:  Lambda=-2.23350729D-02 EMin= 2.30000000D-03
 Linear search not attempted -- first point.
 Iteration  1 RMS(Cart)=  0.05148791 RMS(Int)=  0.00032507
 Iteration  2 RMS(Cart)=  0.00064300 RMS(Int)=  0.00003270
 Iteration  3 RMS(Cart)=  0.00000020 RMS(Int)=  0.00003270
 Variable       Old X    -DE/DX   Delta X   Delta X   Delta X     New X
                                 (Linear)    (Quad)   (Total)
    R1        2.95300   0.01054   0.00000   0.03657   0.03657   2.98957
    R2        2.78431   0.00384   0.00000   0.01022   0.01022   2.79454
    R3        2.78374   0.00301   0.00000   0.00800   0.00800   2.79174
    R4        2.78432   0.00384   0.00000   0.01022   0.01022   2.79454
    R5        2.07084  -0.00093   0.00000  -0.00255  -0.00255   2.06830
    R6        2.07084  -0.00093   0.00000  -0.00255  -0.00255   2.06830
    R7        2.74923  -0.00072   0.00000  -0.00180  -0.00180   2.74743
    R8        2.23223  -0.06103   0.00000  -0.05213  -0.05213   2.18010
    R9        2.23234  -0.06096   0.00000  -0.05208  -0.05208   2.18026
   R10        2.23223  -0.06103   0.00000  -0.05213  -0.05213   2.18010
   R11        2.30784  -0.03876   0.00000  -0.03993  -0.03993   2.26790
   R12        2.74923  -0.00072   0.00000  -0.00180  -0.00180   2.74743
   R13        2.07084  -0.00093   0.00000  -0.00255  -0.00255   2.06830
   R14        2.07084  -0.00093   0.00000  -0.00255  -0.00255   2.06830
   R15        2.95300   0.01054   0.00000   0.03657   0.03657   2.98957
   R16        2.78431   0.00384   0.00000   0.01022   0.01022   2.79454
   R17        2.78374   0.00301   0.00000   0.00800   0.00800   2.79174
   R18        2.78432   0.00384   0.00000   0.01022   0.01022   2.79454
   R19        2.23223  -0.06103   0.00000  -0.05213  -0.05213   2.18010
   R20        2.23234  -0.06096   0.00000  -0.05208  -0.05208   2.18026
   R21        2.23224  -0.06103   0.00000  -0.05213  -0.05213   2.18010
    A1        1.91018   0.00237   0.00000   0.00994   0.00988   1.92007
    A2        1.90465  -0.00067   0.00000  -0.00492  -0.00490   1.89975
    A3        1.91018   0.00237   0.00000   0.00994   0.00988   1.92007
    A4        1.91572  -0.00142   0.00000  -0.00770  -0.00768   1.90804
    A5        1.90734  -0.00120   0.00000   0.00055   0.00043   1.90777
    A6        1.91572  -0.00142   0.00000  -0.00770  -0.00768   1.90804
    A7        1.87915  -0.00175   0.00000  -0.00436  -0.00435   1.87480
    A8        1.87916  -0.00172   0.00000  -0.00437  -0.00436   1.87480
    A9        1.92587   0.00610   0.00000   0.02765   0.02764   1.95351
   A10        1.88642   0.00087   0.00000  -0.00363  -0.00371   1.88271
   A11        1.94530  -0.00180   0.00000  -0.00783  -0.00789   1.93741
   A12        1.94529  -0.00180   0.00000  -0.00783  -0.00789   1.93740
   A13        3.12292   0.00054   0.00000   0.00785   0.00785   3.13078
   A14        3.12418  -0.00027   0.00000  -0.00402  -0.00402   3.12016
   A15        3.10056   0.00009   0.00000   0.00127   0.00127   3.10183
   A16        3.16372  -0.00003   0.00000  -0.00046  -0.00046   3.16326
   A17        3.12292   0.00054   0.00000   0.00786   0.00786   3.13078
   A18        3.15900   0.00027   0.00000   0.00402   0.00402   3.16302
   A19        3.11820  -0.00038   0.00000  -0.00181  -0.00179   3.11641
   A20        3.16119   0.00025   0.00000   0.00132   0.00131   3.16250
   A21        3.11820  -0.00038   0.00000  -0.00293  -0.00292   3.11527
   A22        3.12200  -0.00025   0.00000  -0.00214  -0.00213   3.11987
   A23        1.94530  -0.00180   0.00000  -0.00786  -0.00793   1.93737
   A24        1.94529  -0.00180   0.00000  -0.00787  -0.00793   1.93737
   A25        1.92587   0.00610   0.00000   0.02769   0.02768   1.95355
   A26        1.88642   0.00087   0.00000  -0.00375  -0.00382   1.88260
   A27        1.87915  -0.00175   0.00000  -0.00429  -0.00429   1.87487
   A28        1.87916  -0.00172   0.00000  -0.00430  -0.00430   1.87486
   A29        1.91018   0.00237   0.00000   0.00994   0.00988   1.92007
   A30        1.90465  -0.00067   0.00000  -0.00492  -0.00490   1.89976
   A31        1.91018   0.00237   0.00000   0.00994   0.00988   1.92007
   A32        1.91572  -0.00142   0.00000  -0.00770  -0.00768   1.90804
   A33        1.90734  -0.00120   0.00000   0.00055   0.00043   1.90777
   A34        1.91572  -0.00142   0.00000  -0.00770  -0.00768   1.90804
   A35        3.12292   0.00054   0.00000   0.00785   0.00785   3.13078
   A36        3.12418  -0.00027   0.00000  -0.00402  -0.00402   3.12016
   A37        3.10056   0.00009   0.00000   0.00127   0.00127   3.10183
   A38        3.16372  -0.00003   0.00000  -0.00046  -0.00046   3.16326
   A39        3.12292   0.00054   0.00000   0.00786   0.00786   3.13078
   A40        3.15900   0.00027   0.00000   0.00402   0.00402   3.16302
    D1       -3.11175   0.00108   0.00000   0.01074   0.01078  -3.10096
    D2       -1.08161   0.00032   0.00000   0.00202   0.00204  -1.07956
    D3        1.04491   0.00072   0.00000   0.00638   0.00641   1.05133
    D4       -1.01506   0.00038   0.00000   0.00436   0.00437  -1.01069
    D5        1.01508  -0.00038   0.00000  -0.00436  -0.00437   1.01070
    D6       -3.14159   0.00001   0.00000  -0.00000  -0.00000  -3.14159
    D7        1.08162  -0.00033   0.00000  -0.00202  -0.00204   1.07957
    D8        3.11176  -0.00109   0.00000  -0.01074  -0.01078   3.10097
    D9       -1.04491  -0.00070   0.00000  -0.00638  -0.00642  -1.05132
   D10        1.05767  -0.00070   0.00000  -0.00744  -0.00741   1.05025
   D11       -1.05773   0.00071   0.00000   0.00744   0.00742  -1.05031
   D12        3.14158   0.00003   0.00000  -0.00001  -0.00001   3.14157
   D13       -1.02624  -0.00142   0.00000  -0.01525  -0.01520  -1.04144
   D14        3.14155  -0.00001   0.00000  -0.00037  -0.00037   3.14118
   D15        1.05767  -0.00070   0.00000  -0.00783  -0.00780   1.04987
   D16        3.14155  -0.00001   0.00000   0.00038   0.00038  -3.14126
   D17        1.02615   0.00139   0.00000   0.01526   0.01521   1.04136
   D18       -1.05773   0.00071   0.00000   0.00781   0.00778  -1.04995
   D19        1.04491   0.00072   0.00000   0.00637   0.00641   1.05132
   D20       -3.14159   0.00001   0.00000  -0.00000  -0.00000   3.14159
   D21       -1.04491  -0.00070   0.00000  -0.00638  -0.00642  -1.05132
   D22       -3.11175   0.00108   0.00000   0.01077   0.01081  -3.10093
   D23       -1.01506   0.00038   0.00000   0.00439   0.00440  -1.01066
   D24        1.08162  -0.00033   0.00000  -0.00199  -0.00201   1.07960
   D25       -1.08161   0.00032   0.00000   0.00199   0.00202  -1.07959
   D26        1.01507  -0.00038   0.00000  -0.00439  -0.00440   1.01068
   D27        3.11176  -0.00109   0.00000  -0.01077  -0.01081   3.10094
         Item               Value     Threshold  Converged?
 Maximum Force            0.061031     0.000450     NO 
 RMS     Force            0.016613     0.000300     NO 
 Maximum Displacement     0.181019     0.001800     NO 
 RMS     Displacement     0.051113     0.001200     NO 
 Predicted change in Energy=-1.145221D-02
 GradGradGradGradGradGradGradGradGradGradGradGradGradGradGradGradGradGrad

                          Input orientation:                          
 ---------------------------------------------------------------------
 Center     Atomic      Atomic             Coordinates (Angstroms)
 Number     Number       Type             X           Y           Z
 ---------------------------------------------------------------------
      1          6           0        3.014953    0.000042    0.016132
      2          6           0        1.796705    0.000028   -0.993142
      3          1           0        1.898367    0.884756   -1.629413
      4          1           0        1.898356   -0.884727   -1.629377
      5          6           0        2.964588   -1.206159    0.870186
      6          6           0        4.274423    0.000025   -0.756022
      7          6           0        2.964594    1.206272    0.870145
      8          7           0        2.909620    2.159744    1.517295
      9          7           0        2.909611   -2.159610    1.517367
     10          7           0        5.230833   -0.000416   -1.401317
     11          6           0        0.518186    0.000045   -0.300934
     12          6           0       -0.518345    0.000005    0.303962
     13          6           0       -1.797813    0.000006    0.994414
     14          1           0       -1.900265    0.884701    1.630605
     15          1           0       -1.900277   -0.884712    1.630569
     16          6           0       -3.014716    0.000033   -0.016480
     17          6           0       -2.963230   -1.206170   -0.870465
     18          6           0       -4.275213    0.000032    0.753997
     19          6           0       -2.963206    1.206261   -0.870428
     20          7           0       -5.232481   -0.000398    1.398018
     21          7           0       -2.907327    2.159719   -1.517522
     22          7           0       -2.907370   -2.159609   -1.517588
 ---------------------------------------------------------------------
                    Distance matrix (angstroms):
                    1          2          3          4          5
     1  C    0.000000
     2  C    1.582011   0.000000
     3  H    2.176534   1.094495   0.000000
     4  H    2.176534   1.094495   1.769483   0.000000
     5  C    1.478805   2.508153   3.428811   2.736418   0.000000
     6  C    1.477324   2.489038   2.681641   2.681646   2.411451
     7  C    1.478806   2.508152   2.736421   3.428811   2.412432
     8  N    2.632281   3.493601   3.542598   4.493663   3.427985
     9  N    2.632280   3.493602   4.493663   3.542592   1.153661
    10  N    2.630454   3.458300   3.455558   3.455346   3.427740
    11  C    2.516818   1.453878   2.110087   2.110083   2.968389
    12  C    3.545002   2.653664   3.218885   3.218850   3.729110
    13  C    4.911186   4.107424   4.618332   4.618300   4.914340
    14  H    5.248667   4.618904   5.005729   5.309225   5.349461
    15  H    5.248684   4.618907   5.309256   5.005683   4.934413
    16  C    6.029757   4.909546   5.246206   5.246191   6.163859
    17  C    6.162764   4.911918   5.346316   4.930952   6.178098
    18  C    7.327411   6.318281   6.676561   6.676543   7.340512
    19  C    6.162738   4.911905   4.930955   5.346310   6.632365
    20  N    8.362402   7.424763   7.797296   7.797179   8.302073
    21  N    6.487658   5.202611   4.973203   5.689970   7.177024
    22  N    6.487703   5.202633   5.689971   4.973210   6.410181
                    6          7          8          9         10
     6  C    0.000000
     7  C    2.411452   0.000000
     8  N    3.419802   1.153661   0.000000
     9  N    3.419800   3.427985   4.319354   0.000000
    10  N    1.153744   3.428043   4.309596   4.309165   0.000000
    11  C    3.783704   2.968387   3.699894   3.699898   4.839409
    12  C    4.908583   3.729142   4.229373   4.229323   5.996751
    13  C    6.319499   4.914370   5.205554   5.205503   7.425725
    14  H    6.678728   4.934425   4.977305   5.693466   7.799265
    15  H    6.678735   5.349526   5.693563   4.977269   7.799169
    16  C    7.326559   6.163868   6.489575   6.489561   8.361032
    17  C    7.338366   6.632397   7.177823   6.411010   8.299295
    18  C    8.681960   7.340525   7.541140   7.541120   9.747322
    19  C    7.338349   6.178058   6.410962   7.177788   8.299409
    20  N    9.747877   8.302212   8.424621   8.424376  10.831307
    21  N    7.538017   6.410107   6.561021   7.855185   8.420768
    22  N    7.538047   7.177073   7.855234   6.561114   8.420568
                   11         12         13         14         15
    11  C    0.000000
    12  C    1.200124   0.000000
    13  C    2.653635   1.453878   0.000000
    14  H    3.219063   2.110064   1.094495   0.000000
    15  H    3.219078   2.110058   1.094495   1.769413   0.000000
    16  C    3.544335   2.516854   1.582011   2.176586   2.176584
    17  C    3.728214   2.968434   2.508152   3.428846   2.736488
    18  C    4.908111   3.783727   2.489038   2.681689   2.681692
    19  C    3.728186   2.968433   2.508152   2.736495   3.428844
    20  N    5.996383   4.839425   3.458300   3.455598   3.455383
    21  N    4.228288   3.699920   3.493594   3.542675   4.493683
    22  N    4.228331   3.699921   3.493595   4.493684   3.542666
                   16         17         18         19         20
    16  C    0.000000
    17  C    1.478806   0.000000
    18  C    1.477324   2.411452   0.000000
    19  C    1.478806   2.412432   2.411453   0.000000
    20  N    2.630454   3.427740   1.153744   3.428043   0.000000
    21  N    2.632281   3.427976   3.419818   1.153661   4.309619
    22  N    2.632280   1.153661   3.419816   3.427976   4.309187
                   21         22
    21  N    0.000000
    22  N    4.319328   0.000000
 Stoichiometry    C12H4N6
 Framework group  C1[X(C12H4N6)]
 Deg. of freedom    60
 Full point group                 C1      NOp   1
 Largest Abelian subgroup         C1      NOp   1
 Largest concise Abelian subgroup C1      NOp   1
                         Standard orientation:                         
 ---------------------------------------------------------------------
 Center     Atomic      Atomic             Coordinates (Angstroms)
 Number     Number       Type             X           Y           Z
 ---------------------------------------------------------------------
      1          6           0       -3.014796    0.000049    0.009337
      2          6           0       -1.788022    0.000031    1.008229
      3          1           0       -1.884279    0.884754    1.645347
      4          1           0       -1.884265   -0.884729    1.645298
      5          6           0       -2.971684   -1.206146   -0.845122
      6          6           0       -4.267664    0.000026    0.792158
      7          6           0       -2.971693    1.206286   -0.845065
      8          7           0       -2.922218    2.159762   -1.492652
      9          7           0       -2.922203   -2.159592   -1.492753
     10          7           0       -5.218560   -0.000422    1.445551
     11          6           0       -0.515427    0.000055    0.305190
     12          6           0        0.515930    0.000020   -0.308487
     13          6           0        1.789488    0.000028   -1.009779
     14          1           0        1.886533    0.884727   -1.646811
     15          1           0        1.886549   -0.884686   -1.646787
     16          6           0        3.014932    0.000050   -0.009255
     17          6           0        2.970701   -1.206159    0.845128
     18          6           0        4.268841    0.000057   -0.790408
     19          6           0        2.970674    1.206273    0.845107
     20          7           0        5.220605   -0.000368   -1.442535
     21          7           0        2.920291    2.159725    1.492660
     22          7           0        2.920340   -2.159602    1.492695
 ---------------------------------------------------------------------
 Rotational constants (GHZ):           0.8362993           0.1880305           0.1836449
 Standard basis: GTBas3 (6D, 7F)
 There are   578 symmetry adapted cartesian basis functions of A   symmetry.
 There are   524 symmetry adapted basis functions of A   symmetry.
   524 basis functions,   820 primitive gaussians,   578 cartesian basis functions
    59 alpha electrons       59 beta electrons
       nuclear repulsion energy       997.4281581785 Hartrees.
 NAtoms=   22 NActive=   22 NUniq=   22 SFac= 1.00D+00 NAtFMM=   60 NAOKFM=F Big=F
 Integral buffers will be    131072 words long.
 Raffenetti 2 integral format.
 Two-electron integral symmetry is turned on.
 One-electron integrals computed using PRISM.
 NBasis=   524 RedAO= T EigKep=  4.65D-05  NBF=   524
 NBsUse=   524 1.00D-06 EigRej= -1.00D+00 NBFU=   524
 Initial guess from the checkpoint file:  "/home/artemiy/opt/gaussian/scr/Gau-12103.chk"
 B after Tr=    -0.000000   -0.000000    0.000000
         Rot=    0.999988   -0.000004   -0.004826   -0.000001 Ang=  -0.55 deg.
 ExpMin= 1.61D-01 ExpMax= 4.17D+03 ExpMxC= 6.27D+02 IAcc=2 IRadAn=         4 AccDes= 0.00D+00
 Harris functional with IExCor=  402 and IRadAn=       4 diagonalized for initial guess.
 HarFok:  IExCor=  402 AccDes= 0.00D+00 IRadAn=         4 IDoV= 1 UseB2=F ITyADJ=14
 ICtDFT=  3500011 ScaDFX=  1.000000  1.000000  1.000000  1.000000
 FoFCou: FMM=F IPFlag=           0 FMFlag=      100000 FMFlg1=           0
         NFxFlg=           0 DoJE=T BraDBF=F KetDBF=T FulRan=T
         wScrn=  0.000000 ICntrl=       500 IOpCl=  0 I1Cent=   200000004 NGrid=           0
         NMat0=    1 NMatS0=      1 NMatT0=    0 NMatD0=    1 NMtDS0=    0 NMtDT0=    0
 Petite list used in FoFCou.
 Requested convergence on RMS density matrix=1.00D-08 within 128 cycles.
 Requested convergence on MAX density matrix=1.00D-06.
 Requested convergence on             energy=1.00D-06.
 No special actions if energy rises.
 Integral accuracy reduced to 1.0D-05 until final iterations.
 Initial convergence to 1.0D-05 achieved.  Increase integral accuracy.
 SCF Done:  E(RB3LYP) =  -787.991081872     A.U. after   12 cycles
            NFock= 12  Conv=0.48D-08     -V/T= 2.0073
 Calling FoFJK, ICntrl=      2127 FMM=F ISym2X=0 I1Cent= 0 IOpClX= 0 NMat=1 NMatS=1 NMatT=0.
 ***** Axes restored to original set *****
 -------------------------------------------------------------------
 Center     Atomic                   Forces (Hartrees/Bohr)
 Number     Number              X              Y              Z
 -------------------------------------------------------------------
      1        6           0.000277998    0.000011355    0.001251252
      2        6          -0.001534985    0.000000909    0.000652954
      3        1           0.000572073   -0.000108973    0.000145372
      4        1           0.000572523    0.000109041    0.000145365
      5        6          -0.000109261    0.000066942   -0.000580025
      6        6          -0.000389274   -0.000025436   -0.000770636
      7        6          -0.000113770   -0.000066048   -0.000577267
      8        7          -0.000092741   -0.000356025   -0.000164373
      9        7          -0.000093520    0.000356133   -0.000163924
     10        7          -0.000245793    0.000012840    0.000309762
     11        6           0.004581948   -0.000002249   -0.001846268
     12        6          -0.004615210    0.000002575    0.001783460
     13        6           0.001576399   -0.000001269   -0.000583481
     14        1          -0.000583526   -0.000105579   -0.000148828
     15        1          -0.000584482    0.000105879   -0.000148580
     16        6          -0.000265587    0.000011474   -0.001253060
     17        6           0.000111278    0.000067567    0.000579214
     18        6           0.000390148   -0.000025474    0.000773802
     19        6           0.000115729   -0.000066597    0.000576437
     20        7           0.000246439    0.000012870   -0.000310228
     21        7           0.000091408   -0.000356384    0.000164747
     22        7           0.000092208    0.000356448    0.000164305
 -------------------------------------------------------------------
 Cartesian Forces:  Max     0.004615210 RMS     0.000977882

 GradGradGradGradGradGradGradGradGradGradGradGradGradGradGradGradGradGrad
 Berny optimization.
 Using GEDIIS/GDIIS optimizer.
 FormGI is forming the generalized inverse of G from B-inverse, IUseBI=4.
 Internal  Forces:  Max     0.003762355 RMS     0.000599314
 Search for a local minimum.
 Step number   2 out of a maximum of   98
 All quantities printed in internal units (Hartrees-Bohrs-Radians)
 Mixed Optimization -- En-DIIS/RFO-DIIS
 Update second derivatives using D2CorX and points    1    2
 DE= -1.14D-02 DEPred=-1.15D-02 R= 9.93D-01
 TightC=F SS=  1.41D+00  RLast= 1.60D-01 DXNew= 5.0454D-01 4.7862D-01
 Trust test= 9.93D-01 RLast= 1.60D-01 DXMaxT set to 4.79D-01
 ITU=  1  0
 Use linear search instead of GDIIS.
     Eigenvalues ---    0.00230   0.00230   0.00230   0.01014   0.01034
     Eigenvalues ---    0.02943   0.03181   0.03775   0.04584   0.04585
     Eigenvalues ---    0.04585   0.04585   0.04585   0.04585   0.04585
     Eigenvalues ---    0.04585   0.04585   0.04585   0.04585   0.04592
     Eigenvalues ---    0.04956   0.04980   0.05940   0.08204   0.08698
     Eigenvalues ---    0.08704   0.08902   0.08902   0.09638   0.12080
     Eigenvalues ---    0.12905   0.21965   0.21975   0.24984   0.25000
     Eigenvalues ---    0.25000   0.25000   0.25000   0.25085   0.26602
     Eigenvalues ---    0.26915   0.34144   0.34146   0.34146   0.34146
     Eigenvalues ---    0.35337   0.35337   0.35337   0.35364   0.35373
     Eigenvalues ---    0.35489   0.37604   0.37619   0.95923   1.14539
     Eigenvalues ---    1.14807   1.14819   1.14840   1.14840   1.14840
 RFO step:  Lambda=-1.10806829D-04 EMin= 2.30000000D-03
 Quartic linear search produced a step of -0.00746.
 Iteration  1 RMS(Cart)=  0.01940345 RMS(Int)=  0.00009206
 Iteration  2 RMS(Cart)=  0.00028740 RMS(Int)=  0.00001237
 Iteration  3 RMS(Cart)=  0.00000001 RMS(Int)=  0.00001237
 Variable       Old X    -DE/DX   Delta X   Delta X   Delta X     New X
                                 (Linear)    (Quad)   (Total)
    R1        2.98957  -0.00104  -0.00027  -0.00329  -0.00357   2.98600
    R2        2.79454  -0.00077  -0.00008  -0.00200  -0.00208   2.79246
    R3        2.79174  -0.00030  -0.00006  -0.00072  -0.00078   2.79096
    R4        2.79454  -0.00077  -0.00008  -0.00200  -0.00207   2.79246
    R5        2.06830  -0.00012   0.00002  -0.00039  -0.00037   2.06793
    R6        2.06830  -0.00012   0.00002  -0.00039  -0.00037   2.06793
    R7        2.74743  -0.00113   0.00001  -0.00302  -0.00301   2.74443
    R8        2.18010  -0.00038   0.00039  -0.00104  -0.00065   2.17946
    R9        2.18026  -0.00038   0.00039  -0.00103  -0.00064   2.17962
   R10        2.18010  -0.00038   0.00039  -0.00104  -0.00065   2.17946
   R11        2.26790   0.00376   0.00030   0.00339   0.00369   2.27160
   R12        2.74743  -0.00113   0.00001  -0.00302  -0.00300   2.74443
   R13        2.06830  -0.00012   0.00002  -0.00038  -0.00036   2.06794
   R14        2.06830  -0.00012   0.00002  -0.00038  -0.00036   2.06794
   R15        2.98957  -0.00105  -0.00027  -0.00334  -0.00361   2.98596
   R16        2.79454  -0.00077  -0.00008  -0.00200  -0.00208   2.79246
   R17        2.79174  -0.00030  -0.00006  -0.00072  -0.00078   2.79095
   R18        2.79454  -0.00077  -0.00008  -0.00200  -0.00208   2.79246
   R19        2.18010  -0.00038   0.00039  -0.00104  -0.00065   2.17945
   R20        2.18026  -0.00038   0.00039  -0.00103  -0.00064   2.17962
   R21        2.18010  -0.00038   0.00039  -0.00104  -0.00065   2.17945
    A1        1.92007  -0.00052  -0.00007  -0.00170  -0.00177   1.91829
    A2        1.89975  -0.00105   0.00004  -0.00468  -0.00465   1.89510
    A3        1.92007  -0.00053  -0.00007  -0.00170  -0.00178   1.91829
    A4        1.90804   0.00071   0.00006   0.00226   0.00231   1.91034
    A5        1.90777   0.00068  -0.00000   0.00355   0.00355   1.91132
    A6        1.90804   0.00072   0.00006   0.00229   0.00234   1.91038
    A7        1.87480  -0.00039   0.00003  -0.00442  -0.00439   1.87041
    A8        1.87480  -0.00039   0.00003  -0.00441  -0.00435   1.87045
    A9        1.95351   0.00011  -0.00021   0.00079   0.00060   1.95411
   A10        1.88271  -0.00000   0.00003  -0.00030  -0.00032   1.88239
   A11        1.93741   0.00032   0.00006   0.00390   0.00394   1.94135
   A12        1.93740   0.00032   0.00006   0.00390   0.00395   1.94135
   A13        3.13078  -0.00026  -0.00006  -0.00540  -0.00546   3.12532
   A14        3.12016   0.00011   0.00003   0.00218   0.00221   3.12237
   A15        3.10183   0.00023  -0.00001   0.00492   0.00491   3.10675
   A16        3.16326  -0.00011   0.00000  -0.00231  -0.00231   3.16095
   A17        3.13078  -0.00026  -0.00006  -0.00536  -0.00542   3.12536
   A18        3.16302  -0.00011  -0.00003  -0.00216  -0.00219   3.16083
   A19        3.11641   0.00034   0.00001   0.00599   0.00600   3.12241
   A20        3.16250  -0.00026  -0.00001  -0.00453  -0.00456   3.15794
   A21        3.11527   0.00044   0.00002   0.02499   0.02500   3.14027
   A22        3.11987   0.00033   0.00002   0.01849   0.01853   3.13839
   A23        1.93737   0.00034   0.00006   0.00407   0.00412   1.94150
   A24        1.93737   0.00035   0.00006   0.00409   0.00414   1.94151
   A25        1.95355   0.00006  -0.00021   0.00053   0.00033   1.95388
   A26        1.88260   0.00002   0.00003   0.00003   0.00003   1.88262
   A27        1.87487  -0.00041   0.00003  -0.00464  -0.00464   1.87023
   A28        1.87486  -0.00041   0.00003  -0.00462  -0.00455   1.87031
   A29        1.92007  -0.00052  -0.00007  -0.00170  -0.00177   1.91829
   A30        1.89976  -0.00105   0.00004  -0.00470  -0.00467   1.89509
   A31        1.92007  -0.00052  -0.00007  -0.00170  -0.00178   1.91829
   A32        1.90804   0.00071   0.00006   0.00227   0.00232   1.91035
   A33        1.90777   0.00068  -0.00000   0.00355   0.00354   1.91131
   A34        1.90804   0.00072   0.00006   0.00230   0.00235   1.91039
   A35        3.13078  -0.00026  -0.00006  -0.00536  -0.00542   3.12536
   A36        3.12016   0.00011   0.00003   0.00218   0.00221   3.12237
   A37        3.10183   0.00023  -0.00001   0.00495   0.00494   3.10677
   A38        3.16326  -0.00011   0.00000  -0.00232  -0.00232   3.16094
   A39        3.13078  -0.00026  -0.00006  -0.00531  -0.00537   3.12541
   A40        3.16302  -0.00011  -0.00003  -0.00216  -0.00219   3.16083
    D1       -3.10096   0.00028  -0.00008   0.00343   0.00334  -3.09762
    D2       -1.07956  -0.00011  -0.00002  -0.00134  -0.00136  -1.08092
    D3        1.05133   0.00009  -0.00005   0.00105   0.00101   1.05233
    D4       -1.01069   0.00020  -0.00003   0.00229   0.00225  -1.00844
    D5        1.01070  -0.00020   0.00003  -0.00248  -0.00245   1.00826
    D6       -3.14159  -0.00000   0.00000  -0.00009  -0.00008   3.14151
    D7        1.07957   0.00011   0.00002   0.00119   0.00120   1.08077
    D8        3.10097  -0.00028   0.00008  -0.00358  -0.00350   3.09747
    D9       -1.05132  -0.00009   0.00005  -0.00119  -0.00113  -1.05246
   D10        1.05025   0.00018   0.00006  -0.00294  -0.00288   1.04737
   D11       -1.05031  -0.00018  -0.00006   0.00306   0.00299  -1.04732
   D12        3.14157   0.00000   0.00000   0.00063   0.00066  -3.14096
   D13       -1.04144   0.00037   0.00011   0.00116   0.00128  -1.04016
   D14        3.14118   0.00000   0.00000   0.00716   0.00715  -3.13485
   D15        1.04987   0.00019   0.00006   0.00473   0.00482   1.05469
   D16       -3.14126  -0.00001  -0.00000  -0.00780  -0.00783   3.13410
   D17        1.04136  -0.00037  -0.00011  -0.00180  -0.00195   1.03941
   D18       -1.04995  -0.00019  -0.00006  -0.00423  -0.00428  -1.05423
   D19        1.05132   0.00009  -0.00005   0.00105   0.00101   1.05234
   D20        3.14159  -0.00000   0.00000  -0.00009  -0.00007   3.14152
   D21       -1.05132  -0.00008   0.00005  -0.00119  -0.00112  -1.05245
   D22       -3.10093   0.00028  -0.00008   0.00333   0.00323  -3.09770
   D23       -1.01066   0.00019  -0.00003   0.00219   0.00215  -1.00852
   D24        1.07960   0.00011   0.00002   0.00109   0.00110   1.08070
   D25       -1.07959  -0.00011  -0.00002  -0.00127  -0.00129  -1.08088
   D26        1.01068  -0.00020   0.00003  -0.00241  -0.00238   1.00830
   D27        3.10094  -0.00028   0.00008  -0.00350  -0.00342   3.09752
         Item               Value     Threshold  Converged?
 Maximum Force            0.003762     0.000450     NO 
 RMS     Force            0.000599     0.000300     NO 
 Maximum Displacement     0.067699     0.001800     NO 
 RMS     Displacement     0.019322     0.001200     NO 
 Predicted change in Energy=-5.646457D-05
 GradGradGradGradGradGradGradGradGradGradGradGradGradGradGradGradGradGrad

                          Input orientation:                          
 ---------------------------------------------------------------------
 Center     Atomic      Atomic             Coordinates (Angstroms)
 Number     Number       Type             X           Y           Z
 ---------------------------------------------------------------------
      1          6           0        3.016834   -0.000123    0.021484
      2          6           0        1.809159    0.000227   -0.997491
      3          1           0        1.922448    0.884346   -1.632309
      4          1           0        1.921219   -0.884616   -1.631517
      5          6           0        2.956628   -1.206473    0.872780
      6          6           0        4.279293   -0.001458   -0.744975
      7          6           0        2.958368    1.207196    0.871535
      8          7           0        2.891140    2.159621    1.518457
      9          7           0        2.888003   -2.158130    1.520686
     10          7           0        5.241570   -0.003143   -1.380869
     11          6           0        0.525462    0.001425   -0.318330
     12          6           0       -0.522898    0.002068    0.269828
     13          6           0       -1.791534    0.000599    0.976723
     14          1           0       -1.891452    0.884783    1.613699
     15          1           0       -1.889861   -0.884338    1.612899
     16          6           0       -3.020823    0.000019   -0.016034
     17          6           0       -2.978692   -1.206306   -0.868450
     18          6           0       -4.266496   -0.001577    0.777412
     19          6           0       -2.980889    1.207355   -0.867131
     20          7           0       -5.214881   -0.003461    1.433843
     21          7           0       -2.928278    2.160097   -1.514940
     22          7           0       -2.924324   -2.158244   -1.517296
 ---------------------------------------------------------------------
                    Distance matrix (angstroms):
                    1          2          3          4          5
     1  C    0.000000
     2  C    1.580124   0.000000
     3  H    2.171405   1.094301   0.000000
     4  H    2.171432   1.094301   1.768963   0.000000
     5  C    1.477705   2.504142   3.422941   2.728951   0.000000
     6  C    1.476910   2.483009   2.669594   2.669540   2.412186
     7  C    1.477708   2.504139   2.728845   3.422956   2.413670
     8  N    2.630821   3.487644   3.534405   4.486699   3.428087
     9  N    2.630817   3.487639   4.486685   3.534529   1.153318
    10  N    2.629839   3.453757   3.444914   3.444495   3.427521
    11  C    2.514441   1.452288   2.111318   2.111319   2.964512
    12  C    3.548434   2.654165   3.221220   3.221029   3.732455
    13  C    4.902335   4.106399   4.624037   4.622884   4.900293
    14  H    5.235406   4.614680   5.008234   5.310241   5.331621
    15  H    5.233555   4.612954   5.309739   5.005055   4.913248
    16  C    6.037775   4.928690   5.275444   5.274102   6.162429
    17  C    6.180065   4.939219   5.382887   4.969394   6.185459
    18  C    7.322454   6.329602   6.700347   6.698546   7.323550
    19  C    6.182259   4.941529   4.973182   5.384356   6.641382
    20  N    8.352001   7.432936   7.818629   7.816444   8.278622
    21  N    6.509340   5.232217   5.017057   5.727258   7.187984
    22  N    6.505590   5.228293   5.723791   5.011433   6.419028
                    6          7          8          9         10
     6  C    0.000000
     7  C    2.412217   0.000000
     8  N    3.423501   1.153318   0.000000
     9  N    3.423470   3.428085   4.317753   0.000000
    10  N    1.153404   3.428011   4.313718   4.313035   0.000000
    11  C    3.778000   2.964573   3.691617   3.691512   4.834324
    12  C    4.908246   3.732773   4.227265   4.226742   5.996159
    13  C    6.310245   4.901888   5.184814   5.182092   7.417736
    14  H    6.665348   4.916860   4.950502   5.666671   7.786902
    15  H    6.663146   5.331928   5.668561   4.945608   7.784373
    16  C    7.336420   6.164072   6.478415   6.475596   8.374361
[...]
 0942,-0.83842580,0.00008602,0.45437285,1.12899224,-0.00000172,-0.00003
 299,-0.00000115,0.00000484,0.00272056,-0.00000523,0.00081150,-0.000048
 70,0.00023695,-0.00080891,-0.00004796,-0.00023543,0.00009828,-0.000141
 00,-0.00001210,-0.00000006,-0.00000434,-0.00000021,-0.00009847,-0.0001
 4072,0.00001227,-0.00013275,0.00015917,0.00002582,0.00013279,0.0001592
 0,-0.00002571,0.,0.00000944,0.00000015,0.00006000,-0.02935473,-0.00003
 324,-0.00001913,0.08409057,-0.00187583,0.00000068,-0.00288429,0.004899
 03,-0.00000591,0.00108996,-0.00014652,-0.00086717,0.00086534,-0.000143
 91,0.00086821,0.00086434,0.00046297,0.00022839,0.00001447,0.00033934,-
 0.00000018,-0.00001392,0.00046259,-0.00022849,0.00001469,-0.00051175,0
 .00013457,0.00011106,-0.00051182,-0.00013446,0.00011116,-0.00015882,0.
 00000011,0.00024349,0.45437440,-0.00004616,-0.28787625,-0.57501322,0.0
 0001477,0.41248511,0.00025324,-0.00000037,-0.00080364,0.00094578,-0.00
 000056,0.00216982,0.00010967,-0.00015399,0.00017733,0.00010976,0.00015
 391,0.00017724,-0.00017211,0.00008141,0.00000162,0.00032539,-0.0000000
 4,0.00042780,-0.00017221,-0.00008139,0.00000153,0.00011458,-0.00001496
 ,-0.00004158,0.00011451,0.00001494,-0.00004164,0.00003861,0.,-0.000132
 89,-0.00344905,-0.00000852,0.00489985,-0.22899763,-0.00003313,0.092955
 95,0.43887415,0.00000086,0.00057750,0.00000012,-0.00000004,0.00601657,
 0.00000081,0.00067916,-0.00009947,-0.00035932,-0.00068004,-0.00009907,
 0.00035878,-0.00003804,-0.00002946,-0.00001494,0.00000008,-0.00012920,
 0.00000024,0.00003808,-0.00002975,0.00001480,0.00005494,0.00000278,-0.
 00003068,-0.00005505,0.00000272,0.00003063,0.00000002,0.00000698,-0.00
 000010,0.00001491,0.00272025,-0.00000624,-0.00005801,-0.06417114,0.000
 02894,-0.00001919,0.57875823,0.00060087,-0.00000043,-0.00049902,0.0021
 6971,0.00000149,0.00435070,-0.00023724,0.00029279,0.00018149,-0.000237
 67,-0.00029300,0.00018176,0.00003029,-0.00006866,-0.00003402,0.0001087
 0,0.00000002,0.00006147,0.00003038,0.00006864,-0.00003410,0.00004030,0
 .00001556,0.00001809,0.00004038,-0.00001554,0.00001807,0.00000066,0.,-
 0.00001392,0.00493731,0.00000573,0.00108994,0.09454943,0.00001719,-0.1
 1721618,-0.08906549,0.00000133,0.48924512,-0.00010130,-0.00011863,0.00
 035990,0.00010963,-0.00067979,-0.00023776,-0.00032814,-0.00002572,0.00
 002907,-0.00023724,-0.00003152,-0.00007843,0.00005703,-0.00003038,0.00
 001959,-0.00007271,0.00001550,-0.00011908,0.00003476,0.00007303,0.0000
 3289,0.00006452,-0.00002039,-0.00004313,-0.00002488,0.00000010,-0.0000
 3379,-0.00001775,-0.00000321,0.00002558,-0.00054672,-0.00081043,-0.000
 14439,-0.00803264,0.02424075,0.02031226,-0.04642409,0.02368860,0.01676
 614,0.05847832,-0.00014463,0.00000796,-0.00000535,0.00015393,-0.000099
 54,-0.00029291,0.00002574,0.00001042,0.00002636,-0.00003157,0.00000835
 ,0.00003190,0.00000394,-0.00001724,0.00000870,-0.00001906,0.00000722,-
 0.00003790,0.00000972,0.00003036,0.00001362,0.00002422,-0.00002625,0.0
 0001515,0.00000398,0.00001075,0.00001235,-0.00000384,-0.00000362,0.000
 01887,-0.00216157,-0.00004836,0.00086727,0.00440736,0.00379990,0.00066
 986,0.01828782,-0.22392071,-0.12399323,-0.02288970,0.23745406,0.000140
 39,0.00005536,-0.00002952,0.00017732,0.00035920,0.00018171,0.00002902,
 -0.00002638,0.00002354,-0.00007851,0.00003195,0.00007858,-0.00000126,0
 .00001405,-0.00001076,0.00003400,-0.00000881,0.00004685,0.00001008,-0.
 00002554,-0.00000245,-0.00001426,0.00001704,-0.00002505,-0.00000993,-0
 .00000487,-0.00000584,0.00000034,0.00000296,-0.00001794,-0.00075749,-0
 .00023701,0.00086440,0.00749112,-0.01082016,-0.01087238,0.01416231,-0.
 12216473,-0.13083797,-0.01595150,0.13482189,0.14437271,-0.00010104,0.0
 0011861,0.00035999,0.00010976,0.00067938,-0.00023713,-0.00023748,0.000
 03162,-0.00007848,-0.00032836,0.00002583,0.00002898,0.00003475,-0.0000
 7309,0.00003291,-0.00007268,-0.00001546,-0.00011902,0.00005708,0.00003
 032,0.00001955,-0.00002492,-0.00000008,-0.00003379,0.00006466,0.000020
 44,-0.00004317,-0.00001774,0.00000322,0.00002555,-0.00054303,0.0008098
 0,-0.00014595,-0.00802522,-0.02424889,0.02030336,-0.04640749,-0.023626
 69,0.01671084,0.00052554,0.00184010,-0.00142839,0.05845800,0.00014453,
 0.00000802,0.00000544,-0.00015397,-0.00009905,0.00029293,0.00003156,0.
 00000836,-0.00003198,-0.00002581,0.00001039,-0.00002640,-0.00000971,0.
 00003034,-0.00001362,0.00001903,0.00000721,0.00003783,-0.00000394,-0.0
 0001722,-0.00000869,-0.00000397,0.00001073,-0.00001235,-0.00002422,-0.
 00002626,-0.00001517,0.00000383,-0.00000363,-0.00001885,0.00216097,-0.
 00004826,-0.00086819,-0.00441193,0.00378676,-0.00065813,-0.01822420,-0
 .22402073,0.12397029,-0.00183117,-0.01962220,0.01481398,0.02282419,0.2
 3756325,0.00014030,-0.00005541,-0.00002950,0.00017726,-0.00035888,0.00
 018156,-0.00007839,-0.00003192,0.00007861,0.00002903,0.00002639,0.0000
 2357,0.00001009,0.00002555,-0.00000244,0.00003399,0.00000882,0.0000468
 2,-0.00000127,-0.00001403,-0.00001076,-0.00000993,0.00000486,-0.000005
 84,-0.00001428,-0.00001707,-0.00002507,0.00000034,-0.00000297,-0.00001
 793,-0.00075884,0.00023549,0.00086520,0.00748628,0.01082710,-0.0108683
 5,0.01410823,0.12214005,-0.13075416,-0.00142235,-0.01482542,0.01176171
 ,-0.01588883,-0.13479634,0.14428037,-0.00003527,-0.00000004,0.00002416
 ,0.00025324,-0.00000015,0.00060091,-0.00010117,0.00014458,0.00014034,-
 0.00010118,-0.00014457,0.00014036,0.00001583,-0.00007790,0.00002432,-0
 .00004784,0.,-0.00005980,0.00001588,0.00007789,0.00002433,0.00004695,-
 0.00002254,0.00000690,0.00004700,0.00002256,0.00000690,0.00001072,0.00
 000001,0.00002932,0.00384203,-0.00000019,-0.00187566,-0.04013421,-0.00
 000416,-0.01042930,-0.07916307,0.00000160,-0.02259597,-0.00199711,0.00
 034089,-0.00271582,-0.00200485,-0.00034140,-0.00272362,0.39888745,-0.0
 0000001,-0.00004842,0.,0.00000028,0.00057745,0.00000020,0.00011862,0.0
 0000797,-0.00005536,-0.00011861,0.00000801,0.00005539,0.00000006,0.000
 00646,0.00002820,0.,0.00002299,-0.00000002,-0.00000006,0.00000648,-0.0
 0002819,0.00001741,-0.00003525,0.00003515,-0.00001740,-0.00003526,-0.0
 0003517,-0.00000001,-0.00002857,0.00000001,0.00000029,-0.00003290,-0.0
 0000059,-0.00000778,-0.00163609,-0.00000397,-0.00000052,-0.06765856,-0
 .00000129,-0.02005592,0.00073856,-0.01614163,0.02006000,0.00074149,0.0
 1614600,-0.00000295,0.48024924,0.00002419,0.00000006,0.00002391,-0.000
 80360,0.00000003,-0.00049898,0.00035988,0.00000536,-0.00002950,0.00035
 998,-0.00000544,-0.00002949,-0.00005604,0.00003528,-0.00001973,0.00002
 119,-0.00000001,0.00006410,-0.00005606,-0.00003526,-0.00001972,0.00003
 105,0.00001665,-0.00001613,0.00003102,-0.00001667,-0.00001613,0.000010
 12,0.,-0.00004389,0.00312524,-0.00000003,-0.00288444,0.00580259,-0.000
 00087,0.01434695,-0.01499946,0.00000130,-0.08732728,-0.01648261,0.0020
 4721,-0.01474534,-0.01647475,-0.00204840,-0.01474098,-0.06753039,-0.00
 000921,0.43097415,0.00001585,-0.00000006,-0.00005603,-0.00017214,0.000
 03810,0.00003036,0.00005703,-0.00000394,-0.00000127,0.00003473,0.00000
 970,0.00001009,-0.00001732,0.00001038,-0.00000269,0.00002102,0.0000012
 6,0.00003343,-0.00001516,-0.00001249,-0.00000341,-0.00000167,0.0000013
 9,0.00000317,0.00001582,0.00000224,0.00000710,0.00000599,0.00000110,-0
 .00000909,-0.00067327,-0.00009821,0.00046265,0.00112968,-0.00107024,-0
 .00065959,0.00147004,-0.02266982,-0.01748780,-0.00426990,0.00071799,-0
 .00338912,0.00085536,0.00005757,0.00071330,-0.06087895,0.00689594,0.00
 597615,0.10347495,0.00007789,0.00000647,-0.00003528,-0.00008139,-0.000
 02951,0.00006862,0.00003037,-0.00001724,-0.00001404,0.00007309,0.00003
 034,-0.00002555,-0.00001038,0.00002230,-0.00000978,0.00002630,-0.00000
 258,0.00003596,-0.00001251,-0.00002218,-0.00000859,0.00000267,0.000007
 46,-0.00000488,-0.00001178,-0.00000767,-0.00000317,0.00000200,0.000002
 95,-0.00001428,-0.00006260,-0.00014098,-0.00022827,0.00065291,-0.00015
 737,-0.00023834,-0.01152794,-0.00218324,-0.01057405,0.00068590,-0.0000
 2727,0.00030852,0.00093601,0.00099326,0.00136553,0.00819316,-0.1906153
 4,-0.08873699,-0.06110300,1.11602088,0.00002431,-0.00002820,-0.0000197
 2,0.00000161,0.00001488,-0.00003410,0.00001958,-0.00000870,-0.00001076
 ,0.00003291,0.00001362,-0.00000245,-0.00000269,0.00000978,-0.00000252,
 0.00000912,0.00000357,0.00000957,-0.00000341,-0.00000858,-0.00000970,-
 0.00001070,-0.00000119,0.00000740,-0.00000016,0.00000081,0.00000353,-0
 .00000061,0.00000073,-0.00000326,-0.00021141,0.00001230,0.00001470,0.0
 0142177,-0.00008534,0.00062117,-0.00875768,-0.02075064,-0.02125898,-0.
 00342550,0.00018909,-0.00198843,0.00103501,-0.00031556,0.00054518,0.00
 699175,-0.08932671,-0.12122844,-0.04101392,0.69197422,0.57333563,-0.00
 004784,-0.00000002,0.00002119,0.00032538,0.00000005,0.00010869,-0.0000
 7268,0.00001904,0.00003399,-0.00007272,-0.00001904,0.00003400,0.000021
 02,-0.00002631,0.00000912,-0.00003147,0.,-0.00004519,0.00002104,0.0000
 2630,0.00000911,-0.00000550,-0.00000668,-0.00000120,-0.00000548,0.0000
 0668,-0.00000120,-0.00000516,0.,0.00001652,-0.00043983,0.00000018,0.00
 033940,-0.00455979,-0.00000084,-0.00371242,-0.03938593,-0.00000755,0.0
 0700409,0.00140013,-0.00019894,0.00122017,0.00140017,0.00019905,0.0012
 2009,-0.19463449,-0.00002231,0.08817510,-0.00630049,0.00855641,0.00771
 111,1.12946343,0.,0.00002298,0.,0.00000004,-0.00012919,0.00000003,-0.0
 0001549,0.00000721,0.00000882,0.00001547,0.00000722,-0.00000881,-0.000
 00126,-0.00000258,-0.00000357,0.,-0.00000272,0.,0.00000127,-0.00000258
 ,0.00000357,-0.00000066,0.00000427,-0.00000368,0.00000064,0.00000427,0
 .00000368,0.,0.00000318,0.,-0.00000035,-0.00000437,0.00000007,-0.00000
 010,0.00102091,-0.00000022,-0.00000535,0.00038865,-0.00000074,-0.00100
 567,0.00004246,0.00003619,0.00100618,0.00004259,-0.00003594,-0.0000326
 8,-0.06141728,0.00002255,0.02660495,-0.00291527,-0.01878527,0.00038438
 ,0.10061037,-0.00005980,0.,0.00006409,0.00042774,-0.00000009,0.0000614
 6,-0.00011904,0.00003788,0.00004683,-0.00011905,-0.00003785,0.00004683
 ,0.00003343,-0.00003596,0.00000957,-0.00004518,0.00000001,-0.00007501,
 0.00003345,0.00003596,0.00000958,-0.00001308,-0.00000846,0.00000179,-0
 .00001306,0.00000847,0.00000179,-0.00000995,0.,0.00002787,0.00000887,0
 .00000008,-0.00001396,-0.00459313,-0.00000013,-0.00204742,-0.00894193,
 -0.00000344,0.01481879,-0.00088808,-0.00022261,0.00018809,-0.00088786,
 0.00022225,0.00018766,0.08763178,0.00001506,-0.11645152,0.02199935,-0.
 00952180,-0.01873801,-0.68864953,-0.00025999,0.56280402,0.00001587,0.0
 0000006,-0.00005608,-0.00017218,-0.00003803,0.00003032,0.00003478,-0.0
 0000972,0.00001008,0.00005708,0.00000394,-0.00000127,-0.00001516,0.000
 01251,-0.00000342,0.00002104,-0.00000128,0.00003346,-0.00001733,-0.000
 01039,-0.00000269,0.00001582,-0.00000224,0.00000709,-0.00000169,-0.000
 00140,0.00000317,0.00000599,-0.00000110,-0.00000910,-0.00067335,0.0000
 9861,0.00046274,0.00112892,0.00106999,-0.00065928,0.00145974,0.0226760
 6,-0.01748656,0.00085549,-0.00005801,0.00071371,-0.00426947,-0.0007187
 3,-0.00338945,-0.06087344,-0.00686069,0.00594958,0.00049333,-0.0003900
 1,-0.00206879,-0.00628825,-0.02661309,0.02199136,0.10344691,-0.0000778
 9,0.00000648,0.00003525,0.00008141,-0.00002972,-0.00006866,-0.00007301
 ,0.00003036,0.00002554,-0.00003033,-0.00001723,0.00001404,0.00001249,-
 0.00002218,0.00000859,-0.00002630,-0.00000257,-0.00003596,0.00001039,0
 .00002229,0.00000979,0.00001176,-0.00000766,0.00000317,-0.00000267,0.0
 0000746,0.00000488,-0.00000200,0.00000295,0.00001428,0.00006255,-0.000
 14072,0.00022866,-0.00065314,-0.00015714,0.00023728,0.01153108,-0.0021
 8045,0.01057382,-0.00093622,0.00099304,-0.00136501,-0.00068621,-0.0000
 2757,-0.00030893,-0.00815465,-0.19066517,0.08872507,0.00040318,-0.0420
 9145,0.01244630,-0.00855923,-0.00293131,0.00953260,0.06086365,1.116336
 27,0.00002433,0.00002820,-0.00001971,0.00000157,-0.00001484,-0.0000340
 5,0.00003286,-0.00001362,-0.00000245,0.00001954,0.00000870,-0.00001076
 ,-0.00000340,0.00000858,-0.00000970,0.00000911,-0.00000357,0.00000957,
 -0.00000269,-0.00000979,-0.00000252,-0.00000016,-0.00000081,0.00000353
 ,-0.00001071,0.00000119,0.00000740,-0.00000061,-0.00000073,-0.00000327
 ,-0.00021152,-0.00001208,0.00001445,0.00142176,0.00008498,0.00062232,-
 0.00876056,0.02075305,-0.02125212,0.00103478,0.00031577,0.00054496,-0.
 00342542,-0.00018973,-0.00198873,0.00696270,0.08931848,-0.12119087,-0.
 00206579,-0.01245832,0.01270058,0.00770237,0.01879131,-0.01873252,-0.0
 4083363,-0.69187884,0.57305803,0.00001072,0.,0.00001012,0.00003862,-0.
 00000002,0.00000066,-0.00001775,0.00000383,0.00000034,-0.00001774,-0.0
 0000383,0.00000034,0.00000600,-0.00000200,-0.00000061,-0.00000516,0.,-
 0.00000995,0.00000600,0.00000200,-0.00000061,-0.00000881,-0.00000151,0
 .00000256,-0.00000882,0.00000151,0.00000256,-0.00000292,0.,0.00000355,
 0.00019959,0.00000004,-0.00015885,-0.00004261,0.00000005,0.00011440,0.
 00385756,0.00000036,0.00162036,-0.00022333,0.00001423,-0.00019737,-0.0
 0022316,-0.00001422,-0.00019734,0.00756634,-0.00000913,0.00455439,-0.0
 0158987,-0.00010442,0.00159055,-0.88253363,-0.00033993,0.57647269,-0.0
 0159343,0.00010330,0.00159289,0.87442650,-0.00000001,-0.00002857,0.,0.
 ,0.00000697,-0.00000001,0.00000321,-0.00000361,-0.00000296,-0.00000322
 ,-0.00000363,0.00000297,-0.00000110,0.00000295,-0.00000073,0.,0.000003
 18,0.,0.00000110,0.00000295,0.00000073,-0.00000830,0.00000282,-0.00000
 213,0.00000831,0.00000282,0.00000213,0.,0.00000316,0.,0.00000016,0.000
 00946,-0.00000009,-0.00000029,0.00006147,-0.00000008,0.00000107,0.0001
 9850,0.00000118,0.00024672,0.00006236,0.00012063,-0.00024705,0.0000624
 2,-0.00012079,0.00000116,0.01379781,-0.00000156,-0.00284744,0.00066052
 ,0.00171814,-0.00035171,-0.03131164,0.00023872,0.00284755,0.00066182,-
 0.00171746,0.00034998,0.01571303,0.00002932,0.,-0.00004389,-0.00013287
 ,0.00000005,-0.00001391,0.00002557,-0.00001886,-0.00001793,0.00002555,
 0.00001886,-0.00001793,-0.00000909,0.00001428,-0.00000327,0.00001652,0
 .,0.00002787,-0.00000910,-0.00001428,-0.00000327,-0.00000333,-0.000001
 29,0.00000834,-0.00000334,0.00000130,0.00000834,0.00000355,0.,-0.00000
 559,-0.00030952,-0.00000009,0.00024354,0.00129090,0.00000003,0.0007681
 4,-0.00092576,0.00000053,-0.00458476,0.00041819,0.00031402,0.00021613,
 0.00041828,-0.00031386,0.00021608,0.00483580,0.00000556,0.01177493,-0.
 00051718,0.00046989,0.00090689,0.57869451,0.00023173,-0.42391482,-0.00
 051513,-0.00047015,0.00090596,-0.58390666,-0.00023805,0.41297686,0.000
 04696,-0.00001741,0.00003105,0.00011456,-0.00005497,0.00004033,0.00006
 450,-0.00002422,-0.00001426,-0.00002493,0.00000398,-0.00000993,-0.0000
 0167,-0.00000267,-0.00001069,-0.00000550,0.00000066,-0.00001309,0.0000
 1582,-0.00001176,-0.00000016,-0.00003649,0.00002348,-0.00002246,-0.000
 00624,0.00000658,-0.00000291,-0.00000881,0.00000830,-0.00000333,0.0003
 1360,0.00013272,-0.00051185,-0.00068832,0.00030766,-0.00020084,-0.0017
 4979,-0.00283666,0.00125047,-0.00005392,-0.00000524,0.00004920,0.00080
 397,0.00031734,0.00051600,0.01464311,-0.00055454,0.00099020,0.00054436
 ,-0.00002320,0.00039135,0.00087554,0.00254708,-0.00212946,-0.03417493,
 -0.05390092,0.03612115,0.00007808,-0.00048260,0.00028681,0.01927278,0.
 00002254,-0.00003524,-0.00001665,0.00001494,0.00000276,-0.00001555,0.0
 0002038,-0.00002625,-0.00001704,0.00000008,0.00001074,-0.00000486,-0.0
 0000139,0.00000746,0.00000119,0.00000668,0.00000427,0.00000846,0.00000
 224,-0.00000766,0.00000081,-0.00002347,0.00001124,-0.00000757,0.000006
 59,0.00000248,0.00000230,0.00000151,0.00000282,0.00000130,-0.00005968,
 0.00015918,-0.00013459,0.00028417,0.00004212,0.00017498,-0.00373018,-0
 .00207585,-0.00114440,0.00031505,-0.00005583,0.00051020,0.00082682,0.0
 0065593,0.00029809,0.00024096,0.00800776,0.00411861,-0.00034840,0.0014
 1823,-0.00018645,0.00013456,-0.00171900,0.00125790,-0.05321557,-0.8812
 0632,0.57680243,0.00097180,0.00004792,-0.00065573,0.05454844,0.8741722
 2,0.00000691,-0.00003515,-0.00001614,-0.00004159,0.00003068,0.00001808
 ,-0.00004312,-0.00001515,-0.00002505,-0.00003379,0.00001234,-0.0000058
 4,0.00000317,0.00000489,0.00000740,-0.00000120,0.00000368,0.00000179,0
 .00000709,-0.00000317,0.00000353,-0.00002246,0.00000757,-0.00000289,-0
 .00000291,0.00000230,0.00000441,0.00000256,0.00000213,0.00000834,0.000
 00605,-0.00002584,0.00011111,-0.00003279,-0.00001191,-0.00018983,0.001
 69411,-0.00052346,0.00192354,-0.00011956,-0.00008722,0.00005537,-0.000
 05201,-0.00011257,0.00020169,0.00025562,0.00417536,0.01102993,0.000301
 50,0.00362620,-0.00179320,0.00005525,-0.00013174,0.00085248,0.03552155
 ,0.57589402,-0.42282604,-0.00074696,0.00026033,0.00027605,-0.03674580,
 -0.58203346,0.41056238,0.00004699,0.00001739,0.00003102,0.00011456,0.0
 0005501,0.00004033,-0.00002488,-0.00000398,-0.00000993,0.00006467,0.00
 002422,-0.00001428,0.00001582,0.00001177,-0.00000016,-0.00000549,-0.00
 000064,-0.00001307,-0.00000169,0.00000267,-0.00001070,-0.00000624,-0.0
 0000659,-0.00000291,-0.00003649,-0.00002349,-0.00002247,-0.00000881,-0
 .00000831,-0.00000334,0.00031360,-0.00013281,-0.00051173,-0.00068830,-
 0.00030755,-0.00020099,-0.00175164,0.00283643,0.00125080,0.00080430,-0
 .00031738,0.00051599,-0.00005385,0.00000524,0.00004940,0.01464302,0.00
 055731,0.00099222,-0.03419939,0.05409051,0.03626579,0.00087655,-0.0025
 4542,-0.00212953,0.00054425,0.00002276,0.00039144,0.00007780,0.0004824
 5,0.00028697,-0.00002269,-0.00001804,-0.00001160,0.01929793,-0.0000225
 6,-0.00003527,0.00001668,-0.00001495,0.00000275,0.00001555,-0.00000010
 ,0.00001074,0.00000487,-0.00002044,-0.00002626,0.00001707,-0.00000224,
 -0.00000767,-0.00000081,-0.00000668,0.00000428,-0.00000847,0.00000140,
 0.00000746,-0.00000119,-0.00000658,0.00000248,-0.00000230,0.00002349,0
 .00001125,0.00000758,-0.00000151,0.00000282,-0.00000130,0.00005969,0.0
 0015920,0.00013442,-0.00028407,0.00004209,-0.00017466,0.00373011,-0.00
 207455,0.00114330,-0.00082692,0.00065558,-0.00029784,-0.00031503,-0.00
 005584,-0.00051017,-0.00024159,0.00800861,-0.00411767,0.05340979,-0.88
 095230,-0.57688678,-0.00013406,-0.00171818,-0.00125858,0.00034789,0.00
 141881,0.00018708,-0.00097204,0.00004727,0.00065608,0.00001796,0.00058
 104,-0.00103981,-0.05474156,0.87391569,0.00000691,0.00003517,-0.000016
 13,-0.00004164,-0.00003063,0.00001809,-0.00003380,-0.00001235,-0.00000
 584,-0.00004316,0.00001517,-0.00002507,0.00000710,0.00000317,0.0000035
 3,-0.00000120,-0.00000368,0.00000179,0.00000317,-0.00000488,0.00000740
 ,-0.00000291,-0.00000231,0.00000441,-0.00002247,-0.00000758,-0.0000029
 0,0.00000256,-0.00000213,0.00000834,0.00000593,0.00002570,0.00011111,-
 0.00003266,0.00001222,-0.00018958,0.00169483,0.00052297,0.00192355,-0.
 00005220,0.00011257,0.00020163,-0.00011966,0.00008715,0.00005531,0.000
 25537,-0.00417727,0.01102848,0.03566878,-0.57597561,-0.42305508,0.0000
 5484,0.00013202,0.00085241,0.00030233,-0.00362574,-0.00179407,-0.00074
 707,-0.00026097,0.00027623,-0.00001180,0.00104004,-0.00019709,-0.03689
 325,0.58211696,0.41079349\\-0.00003821,-0.00000640,-0.00000681,0.00004
 209,-0.00001048,0.00005269,-0.00001744,0.00000357,-0.00001573,-0.00001
 373,-0.00000387,-0.00001854,0.00000848,0.00001790,-0.00002577,-0.00003
 408,0.00001621,0.00001712,0.00001646,-0.00001953,-0.00003185,-0.000002
 29,0.00003874,0.00003751,0.00000036,-0.00003961,0.00003628,0.00005061,
 -0.00000686,-0.00002442,-0.00011804,0.00000504,0.00003057,0.00011551,0
 .00002058,-0.00003386,-0.00003775,-0.00001362,-0.00004569,0.00001856,0
 .00000285,0.00001691,0.00001230,-0.00000322,0.00001825,0.00004510,-0.0
 0000746,0.00000738,-0.00001353,0.00001538,0.00002601,0.00003022,0.0000
 1487,-0.00002371,-0.00002113,-0.00001713,0.00003183,-0.00004851,-0.000
 00617,0.00002656,0.00000393,0.00003769,-0.00003786,0.00000110,-0.00003
 849,-0.00003684\\\@
 Job cpu time:       2 days  0 hours 14 minutes 56.4 seconds.
 Elapsed time:       0 days  4 hours 49 minutes 31.7 seconds.
 File lengths (MBytes):  RWF= 407460 Int=      0 D2E=      0 Chk=    236 Scr=      1
 Normal termination of Gaussian 16 at Fri Jun 24 01:46:50 2022.
