 Entering Gaussian System, Link 0=/home/artemiy/opt/gaussian/g16/g16
 Input=1,1,1,5,5,5-Hexafluoro-2,4-pentanedione_enol_M06.gjf
 Output=1,1,1,5,5,5-Hexafluoro-2,4-pentanedione_enol_M06.log
 Initial command:
 /home/artemiy/opt/gaussian/g16/l1.exe "/home/artemiy/opt/gaussian/scr/Gau-6508.inp" -scrdir="/home/artemiy/opt/gaussian/scr/"
 Entering Link 1 = /home/artemiy/opt/gaussian/g16/l1.exe PID=      6512.
  
 Copyright (c) 1988,1990,1992,1993,1995,1998,2003,2009,2016,
            Gaussian, Inc.  All Rights Reserved.
  
 This is part of the Gaussian(R) 16 program.  It is based on
 the Gaussian(R) 09 system (copyright 2009, Gaussian, Inc.),
 the Gaussian(R) 03 system (copyright 2003, Gaussian, Inc.),
 the Gaussian(R) 98 system (copyright 1998, Gaussian, Inc.),
 the Gaussian(R) 94 system (copyright 1995, Gaussian, Inc.),
 the Gaussian 92(TM) system (copyright 1992, Gaussian, Inc.),
 the Gaussian 90(TM) system (copyright 1990, Gaussian, Inc.),
 the Gaussian 88(TM) system (copyright 1988, Gaussian, Inc.),
 the Gaussian 86(TM) system (copyright 1986, Carnegie Mellon
 University), and the Gaussian 82(TM) system (copyright 1983,
 Carnegie Mellon University). Gaussian is a federally registered
 trademark of Gaussian, Inc.
  
 This software contains proprietary and confidential information,
 including trade secrets, belonging to Gaussian, Inc.
  
 This software is provided under written license and may be
 used, copied, transmitted, or stored only in accord with that
 written license.
  
 The following legend is applicable only to US Government
 contracts under FAR:
  
                    RESTRICTED RIGHTS LEGEND
  
 Use, reproduction and disclosure by the US Government is
 subject to restrictions as set forth in subparagraphs (a)
 and (c) of the Commercial Computer Software - Restricted
 Rights clause in FAR 52.227-19.
  
 Gaussian, Inc.
 340 Quinnipiac St., Bldg. 40, Wallingford CT 06492
  
  
 ---------------------------------------------------------------
 Warning -- This program may not be used in any manner that
 competes with the business of Gaussian, Inc. or will provide
 assistance to any competitor of Gaussian, Inc.  The licensee
 of this program is prohibited from giving any competitor of
 Gaussian, Inc. access to this program.  By using this program,
 the user acknowledges that Gaussian, Inc. is engaged in the
 business of creating and licensing software in the field of
 computational chemistry and represents and warrants to the
 licensee that it is not a competitor of Gaussian, Inc. and that
 it will not use this program in any manner prohibited above.
 ---------------------------------------------------------------
  

 Cite this work as:
 Gaussian 16, Revision A.03,
 M. J. Frisch, G. W. Trucks, H. B. Schlegel, G. E. Scuseria, 
 M. A. Robb, J. R. Cheeseman, G. Scalmani, V. Barone, 
 G. A. Petersson, H. Nakatsuji, X. Li, M. Caricato, A. V. Marenich, 
 J. Bloino, B. G. Janesko, R. Gomperts, B. Mennucci, H. P. Hratchian, 
 J. V. Ortiz, A. F. Izmaylov, J. L. Sonnenberg, D. Williams-Young, 
 F. Ding, F. Lipparini, F. Egidi, J. Goings, B. Peng, A. Petrone, 
 T. Henderson, D. Ranasinghe, V. G. Zakrzewski, J. Gao, N. Rega, 
 G. Zheng, W. Liang, M. Hada, M. Ehara, K. Toyota, R. Fukuda, 
 J. Hasegawa, M. Ishida, T. Nakajima, Y. Honda, O. Kitao, H. Nakai, 
 T. Vreven, K. Throssell, J. A. Montgomery, Jr., J. E. Peralta, 
 F. Ogliaro, M. J. Bearpark, J. J. Heyd, E. N. Brothers, K. N. Kudin, 
 V. N. Staroverov, T. A. Keith, R. Kobayashi, J. Normand, 
 K. Raghavachari, A. P. Rendell, J. C. Burant, S. S. Iyengar, 
 J. Tomasi, M. Cossi, J. M. Millam, M. Klene, C. Adamo, R. Cammi, 
 J. W. Ochterski, R. L. Martin, K. Morokuma, O. Farkas, 
 J. B. Foresman, and D. J. Fox, Gaussian, Inc., Wallingford CT, 2016.
 
 ******************************************
 Gaussian 16:  ES64L-G16RevA.03 25-Dec-2016
                24-Nov-2021 
 ******************************************
 %mem=47GB
 %nprocshared=11
 Will use up to   11 processors via shared memory.
 ----------------------------------------------------------------------
 # opt=(tight) freq M06/6-311++G(3df,3pd) nosymm int=ultrafinegrid scf=
 (tight,ssd,noincfock,xqc,fdiag,novaracc)
 ----------------------------------------------------------------------
 1/7=10,18=20,19=15,26=4,38=1/1,3;
 2/9=110,12=2,15=1,17=6,18=5,40=1/2;
 3/5=4,6=6,7=1616,11=2,25=1,30=1,71=1,74=-54,75=-5/1,2,3;
 4//1;
 5/5=100002,16=1,32=2,38=1/2;
 6/7=2,8=2,9=2,10=2,28=1/1;
 7/30=1/1,2,3,16;
 1/7=10,18=20,19=15,26=4/3(2);
 2/9=110,15=1/2;
 99//99;
 2/9=110,15=1/2;
 3/5=4,6=6,7=1616,11=2,25=1,30=1,71=1,74=-54,75=-5/1,2,3;
 4/5=5,16=3,69=1/1;
 5/5=100002,16=1,32=2,38=1/2;
 7/30=1/1,2,3,16;
 1/7=10,18=20,19=15,26=4/3(-5);
 2/9=110,15=1/2;
 6/7=2,8=2,9=2,10=2,19=2,28=1/1;
 99/9=1/99;
 -------------------
 CAS 1522-22-1
 -------------------
 Symbolic Z-matrix:
 Charge =  0 Multiplicity = 1
 C                     2.49858   0.29125  -0.00004 
 F                     3.22811  -0.01159  -1.07499 
 F                     3.22528  -0.00739   1.07805 
 F                     2.31641   1.61333  -0.00282 
 C                     1.17139  -0.46894  -0.00019 
 C                    -0.01751   0.18922  -0.00028 
 C                    -1.23024  -0.58454  -0.00021 
 O                    -1.28949  -1.79999  -0.00009 
 C                    -2.52467   0.26643  -0.00004 
 F                    -2.56747   1.06261   1.07854 
 F                    -2.56561   1.06631  -1.07594 
 F                    -3.6242   -0.47581  -0.00227 
 H                    -0.06459   1.26407  -0.00046 
 O                     1.32799  -1.76634   0. 
 H                     0.43802  -2.21163   0.00005 
 

 GradGradGradGradGradGradGradGradGradGradGradGradGradGradGradGradGradGrad
 Berny optimization.
 Initialization pass.
                           ----------------------------
                           !    Initial Parameters    !
                           ! (Angstroms and Degrees)  !
 --------------------------                            --------------------------
 ! Name  Definition              Value          Derivative Info.                !
 --------------------------------------------------------------------------------
 ! R1    R(1,2)                  1.334          estimate D2E/DX2                !
 ! R2    R(1,3)                  1.334          estimate D2E/DX2                !
 ! R3    R(1,4)                  1.3346         estimate D2E/DX2                !
 ! R4    R(1,5)                  1.5295         estimate D2E/DX2                !
 ! R5    R(5,6)                  1.3589         estimate D2E/DX2                !
 ! R6    R(5,14)                 1.3068         estimate D2E/DX2                !
 ! R7    R(6,7)                  1.4385         estimate D2E/DX2                !
 ! R8    R(6,13)                 1.0759         estimate D2E/DX2                !
 ! R9    R(7,8)                  1.2169         estimate D2E/DX2                !
 ! R10   R(7,9)                  1.5491         estimate D2E/DX2                !
 ! R11   R(9,10)                 1.3413         estimate D2E/DX2                !
 ! R12   R(9,11)                 1.3413         estimate D2E/DX2                !
 ! R13   R(9,12)                 1.3266         estimate D2E/DX2                !
 ! R14   R(14,15)                0.9952         estimate D2E/DX2                !
 ! A1    A(2,1,3)              107.6079         estimate D2E/DX2                !
 ! A2    A(2,1,4)              107.33           estimate D2E/DX2                !
 ! A3    A(2,1,5)              111.2013         estimate D2E/DX2                !
 ! A4    A(3,1,4)              107.3267         estimate D2E/DX2                !
 ! A5    A(3,1,5)              111.1928         estimate D2E/DX2                !
 ! A6    A(4,1,5)              111.9576         estimate D2E/DX2                !
 ! A7    A(1,5,6)              121.2286         estimate D2E/DX2                !
 ! A8    A(1,5,14)             112.921          estimate D2E/DX2                !
 ! A9    A(6,5,14)             125.8503         estimate D2E/DX2                !
 ! A10   A(5,6,7)              118.4928         estimate D2E/DX2                !
 ! A11   A(5,6,13)             121.4765         estimate D2E/DX2                !
 ! A12   A(7,6,13)             120.0307         estimate D2E/DX2                !
 ! A13   A(6,7,8)              125.3297         estimate D2E/DX2                !
 ! A14   A(6,7,9)              114.1395         estimate D2E/DX2                !
 ! A15   A(8,7,9)              120.5309         estimate D2E/DX2                !
 ! A16   A(7,9,10)             110.661          estimate D2E/DX2                !
 ! A17   A(7,9,11)             110.6716         estimate D2E/DX2                !
 ! A18   A(7,9,12)             112.6569         estimate D2E/DX2                !
 ! A19   A(10,9,11)            106.8622         estimate D2E/DX2                !
 ! A20   A(10,9,12)            107.8799         estimate D2E/DX2                !
 ! A21   A(11,9,12)            107.879          estimate D2E/DX2                !
 ! A22   A(5,14,15)            109.6987         estimate D2E/DX2                !
 ! D1    D(2,1,5,6)           -120.1875         estimate D2E/DX2                !
 ! D2    D(2,1,5,14)            59.8227         estimate D2E/DX2                !
 ! D3    D(3,1,5,6)            119.9185         estimate D2E/DX2                !
 ! D4    D(3,1,5,14)           -60.0713         estimate D2E/DX2                !
 ! D5    D(4,1,5,6)             -0.1295         estimate D2E/DX2                !
 ! D6    D(4,1,5,14)           179.8807         estimate D2E/DX2                !
 ! D7    D(1,5,6,7)           -179.9906         estimate D2E/DX2                !
 ! D8    D(1,5,6,13)             0.0125         estimate D2E/DX2                !
 ! D9    D(14,5,6,7)            -0.0022         estimate D2E/DX2                !
 ! D10   D(14,5,6,13)         -179.9991         estimate D2E/DX2                !
 ! D11   D(1,5,14,15)          179.9906         estimate D2E/DX2                !
 ! D12   D(6,5,14,15)            0.0014         estimate D2E/DX2                !
 ! D13   D(5,6,7,8)             -0.0011         estimate D2E/DX2                !
 ! D14   D(5,6,7,9)            179.988          estimate D2E/DX2                !
 ! D15   D(13,6,7,8)           179.9958         estimate D2E/DX2                !
 ! D16   D(13,6,7,9)            -0.0151         estimate D2E/DX2                !
 ! D17   D(6,7,9,10)           -59.2455         estimate D2E/DX2                !
 ! D18   D(6,7,9,11)            59.0239         estimate D2E/DX2                !
 ! D19   D(6,7,9,12)           179.8924         estimate D2E/DX2                !
 ! D20   D(8,7,9,10)           120.7442         estimate D2E/DX2                !
 ! D21   D(8,7,9,11)          -120.9864         estimate D2E/DX2                !
 ! D22   D(8,7,9,12)            -0.1178         estimate D2E/DX2                !
 --------------------------------------------------------------------------------
 Trust Radius=3.00D-01 FncErr=1.00D-07 GrdErr=1.00D-06 EigMax=2.50D+02 EigMin=1.00D-04
 Number of steps in this run=     68 maximum allowed number of steps=    100.
 GradGradGradGradGradGradGradGradGradGradGradGradGradGradGradGradGradGrad

                          Input orientation:                          
 ---------------------------------------------------------------------
 Center     Atomic      Atomic             Coordinates (Angstroms)
 Number     Number       Type             X           Y           Z
 ---------------------------------------------------------------------
      1          6           0        2.498584    0.291254   -0.000042
      2          9           0        3.228114   -0.011587   -1.074986
      3          9           0        3.225284   -0.007395    1.078054
      4          9           0        2.316410    1.613327   -0.002819
      5          6           0        1.171392   -0.468936   -0.000189
      6          6           0       -0.017506    0.189217   -0.000284
      7          6           0       -1.230239   -0.584541   -0.000214
      8          8           0       -1.289485   -1.799989   -0.000094
      9          6           0       -2.524667    0.266434   -0.000037
     10          9           0       -2.567470    1.062612    1.078545
     11          9           0       -2.565607    1.066307   -1.075937
     12          9           0       -3.624203   -0.475814   -0.002275
     13          1           0       -0.064592    1.264072   -0.000459
     14          8           0        1.327985   -1.766336    0.000004
     15          1           0        0.438019   -2.211626    0.000050
 ---------------------------------------------------------------------
                    Distance matrix (angstroms):
                    1          2          3          4          5
     1  C    0.000000
     2  F    1.333954   0.000000
     3  F    1.334007   2.153047   0.000000
     4  F    1.334568   2.149672   2.149669   0.000000
     5  C    1.529486   2.365261   2.365186   2.376319   0.000000
     6  C    2.518158   3.424814   3.423033   2.734092   1.358912
     7  C    3.830292   4.621723   4.620330   4.172452   2.404412
     8  O    4.326981   4.976191   4.975836   4.965200   2.797789
     9  C    5.023312   5.858950   5.856552   5.024953   3.768503
    10  F    5.236721   6.275380   5.890748   5.032387   4.181912
    11  F    5.234911   5.893137   6.271120   5.028410   4.180833
    12  F    6.170650   6.951292   6.949964   6.297253   4.795600
    13  H    2.741577   3.691047   3.688239   2.406482   2.128608
    14  O    2.367272   2.800935   2.802822   3.521237   1.306817
    15  H    3.241965   3.712211   3.713432   4.261294   1.890716
                    6          7          8          9         10
     6  C    0.000000
     7  C    1.438549   0.000000
     8  O    2.361117   1.216891   0.000000
     9  C    2.508350   1.549097   2.407442   0.000000
    10  F    2.903275   2.380130   3.315297   1.341294   0.000000
    11  F    2.901575   2.380271   3.316863   1.341281   2.154486
    12  F    3.667497   2.396433   2.684092   1.326619   2.156759
    13  H    1.075886   2.185430   3.299824   2.654666   2.732990
    14  O    2.373717   2.818005   2.617687   4.356040   4.933637
    15  H    2.443676   2.330341   1.775870   3.862420   4.573483
                   11         12         13         14         15
    11  F    0.000000
    12  F    2.156737   0.000000
    13  H    2.729623   3.962075   0.000000
    14  O    4.933719   5.117580   3.335063   0.000000
    15  H    4.574316   4.417544   3.511851   0.995150   0.000000
 Symmetry turned off by external request.
 Stoichiometry    C5H2F6O2
 Framework group  C1[X(C5H2F6O2)]
 Deg. of freedom    39
 Full point group                 C1      NOp   1
 Rotational constants (GHZ):           1.6721101           0.3809748           0.3479312
 Standard basis: 6-311++G(3df,3pd) (5D, 7F)
   543 basis functions,   796 primitive gaussians,   623 cartesian basis functions
    51 alpha electrons       51 beta electrons
       nuclear repulsion energy       884.4090484079 Hartrees.
 NAtoms=   15 NActive=   15 NUniq=   15 SFac= 1.00D+00 NAtFMM=   60 NAOKFM=F Big=F
 Integral buffers will be    131072 words long.
 Raffenetti 2 integral format.
 Two-electron integral symmetry is turned off.
 One-electron integrals computed using PRISM.
 NBasis=   543 RedAO= T EigKep=  3.55D-06  NBF=   543
 NBsUse=   543 1.00D-06 EigRej= -1.00D+00 NBFU=   543
 ExpMin= 3.60D-02 ExpMax= 1.14D+04 ExpMxC= 1.72D+03 IAcc=3 IRadAn=         5 AccDes= 0.00D+00
 Harris functional with IExCor= 1009 and IRadAn=       5 diagonalized for initial guess.
 HarFok:  IExCor= 1009 AccDes= 0.00D+00 IRadAn=         5 IDoV= 1 UseB2=F ITyADJ=14
 ICtDFT=  3500011 ScaDFX=  1.000000  1.000000  1.000000  1.000000
 FoFCou: FMM=F IPFlag=           0 FMFlag=      100000 FMFlg1=           0
         NFxFlg=           0 DoJE=T BraDBF=F KetDBF=T FulRan=T
         wScrn=  0.000000 ICntrl=       500 IOpCl=  0 I1Cent=   200000004 NGrid=           0
         NMat0=    1 NMatS0=      1 NMatT0=    0 NMatD0=    1 NMtDS0=    0 NMtDT0=    0
 Symmetry not used in FoFCou.
 Requested convergence on RMS density matrix=1.00D-08 within 128 cycles.
 Requested convergence on MAX density matrix=1.00D-06.
 Requested convergence on             energy=1.00D-06.
 No special actions if energy rises.
 SCF Done:  E(RM06) =  -941.193828295     A.U. after   14 cycles
            NFock= 14  Conv=0.37D-08     -V/T= 2.0029

 **********************************************************************

            Population analysis using the SCF density.

 **********************************************************************

 Alpha  occ. eigenvalues --  -24.84716 -24.84371 -24.84370 -24.84209 -24.84207
 Alpha  occ. eigenvalues --  -24.83906 -19.30556 -19.26334 -10.53295 -10.52133
 Alpha  occ. eigenvalues --  -10.39098 -10.38997 -10.28864  -1.39224  -1.38617
 Alpha  occ. eigenvalues --   -1.30532  -1.30293  -1.29969  -1.29912  -1.16994
 Alpha  occ. eigenvalues --   -1.12833  -0.86991  -0.81212  -0.77362  -0.71650
 Alpha  occ. eigenvalues --   -0.69161  -0.65659  -0.65399  -0.64939  -0.64795
 Alpha  occ. eigenvalues --   -0.63082  -0.58819  -0.55677  -0.53454  -0.53108
 Alpha  occ. eigenvalues --   -0.52551  -0.52466  -0.51874  -0.50776  -0.49204
 Alpha  occ. eigenvalues --   -0.49006  -0.48336  -0.47709  -0.46860  -0.46643
 Alpha  occ. eigenvalues --   -0.46421  -0.46328  -0.45484  -0.43514  -0.33819
 Alpha  occ. eigenvalues --   -0.32129
 Alpha virt. eigenvalues --   -0.11376  -0.04366  -0.02774  -0.01544  -0.00815
 Alpha virt. eigenvalues --    0.00112   0.00202   0.00826   0.01421   0.02107
 Alpha virt. eigenvalues --    0.02587   0.03469   0.03751   0.06148   0.06354
 Alpha virt. eigenvalues --    0.06583   0.07726   0.07901   0.08350   0.09428
 Alpha virt. eigenvalues --    0.09625   0.11288   0.12682   0.12950   0.14229
 Alpha virt. eigenvalues --    0.15194   0.16054   0.16082   0.16903   0.18638
 Alpha virt. eigenvalues --    0.19002   0.19245   0.19729   0.20080   0.21071
 Alpha virt. eigenvalues --    0.21503   0.22494   0.22697   0.23183   0.23555
 Alpha virt. eigenvalues --    0.23787   0.23967   0.24567   0.25577   0.26533
 Alpha virt. eigenvalues --    0.28664   0.28793   0.29041   0.29202   0.29958
 Alpha virt. eigenvalues --    0.30513   0.30702   0.31924   0.31935   0.32180
 Alpha virt. eigenvalues --    0.32972   0.33862   0.34150   0.34190   0.34852
 Alpha virt. eigenvalues --    0.34978   0.35913   0.37309   0.37597   0.38379
 Alpha virt. eigenvalues --    0.39315   0.40170   0.40764   0.40814   0.42926
 Alpha virt. eigenvalues --    0.43448   0.43557   0.44912   0.46457   0.48070
 Alpha virt. eigenvalues --    0.49261   0.49992   0.50296   0.51415   0.51704
 Alpha virt. eigenvalues --    0.54552   0.54849   0.55800   0.57079   0.58266
 Alpha virt. eigenvalues --    0.58790   0.60657   0.61474   0.63369   0.65401
 Alpha virt. eigenvalues --    0.65495   0.67055   0.67942   0.68253   0.69219
 Alpha virt. eigenvalues --    0.70315   0.70744   0.71203   0.73129   0.73996
 Alpha virt. eigenvalues --    0.75024   0.76612   0.78768   0.80252   0.80868
 Alpha virt. eigenvalues --    0.81191   0.84811   0.85375   0.88068   0.90540
 Alpha virt. eigenvalues --    0.92261   0.94351   0.94591   0.95435   0.96330
 Alpha virt. eigenvalues --    0.97423   1.00019   1.02979   1.03926   1.04818
 Alpha virt. eigenvalues --    1.06271   1.06879   1.10891   1.12495   1.14049
 Alpha virt. eigenvalues --    1.15237   1.15501   1.16819   1.17100   1.17825
 Alpha virt. eigenvalues --    1.18766   1.20236   1.22129   1.22448   1.22938
 Alpha virt. eigenvalues --    1.23163   1.23631   1.24559   1.24877   1.25927
 Alpha virt. eigenvalues --    1.27012   1.28086   1.28542   1.29372   1.29434
 Alpha virt. eigenvalues --    1.29765   1.30409   1.31588   1.31969   1.33331
 Alpha virt. eigenvalues --    1.35077   1.35119   1.35813   1.37741   1.38324
 Alpha virt. eigenvalues --    1.38741   1.39329   1.39845   1.41079   1.41484
 Alpha virt. eigenvalues --    1.41933   1.43402   1.45583   1.46533   1.49418
 Alpha virt. eigenvalues --    1.53185   1.54235   1.56274   1.56698   1.58346
 Alpha virt. eigenvalues --    1.59505   1.60425   1.60736   1.62415   1.63362
 Alpha virt. eigenvalues --    1.64599   1.65939   1.68501   1.68996   1.69480
 Alpha virt. eigenvalues --    1.70861   1.73491   1.73575   1.76366   1.76848
 Alpha virt. eigenvalues --    1.77514   1.80675   1.83106   1.83450   1.86760
 Alpha virt. eigenvalues --    1.88328   1.91644   1.93425   1.94206   1.97814
 Alpha virt. eigenvalues --    1.99449   2.01357   2.01771   2.03856   2.06046
 Alpha virt. eigenvalues --    2.09946   2.10483   2.12905   2.15673   2.16186
 Alpha virt. eigenvalues --    2.17424   2.20565   2.25554   2.27860   2.28186
 Alpha virt. eigenvalues --    2.31653   2.33431   2.34672   2.38337   2.42213
 Alpha virt. eigenvalues --    2.47465   2.49773   2.54213   2.59233   2.61595
 Alpha virt. eigenvalues --    2.63518   2.64014   2.65786   2.70567   2.73118
 Alpha virt. eigenvalues --    2.74009   2.74375   2.76573   2.80474   2.81754
 Alpha virt. eigenvalues --    2.85098   2.89124   2.89652   2.90334   2.91926
 Alpha virt. eigenvalues --    2.94323   2.97939   3.02510   3.02765   3.05695
 Alpha virt. eigenvalues --    3.06390   3.09540   3.14294   3.15478   3.16096
 Alpha virt. eigenvalues --    3.17133   3.17425   3.17464   3.18125   3.19334
 Alpha virt. eigenvalues --    3.20571   3.27664   3.30453   3.36706   3.37398
 Alpha virt. eigenvalues --    3.38585   3.41550   3.43318   3.47002   3.49642
 Alpha virt. eigenvalues --    3.50102   3.51629   3.51720   3.53761   3.53772
 Alpha virt. eigenvalues --    3.58282   3.58930   3.62225   3.63285   3.65879
 Alpha virt. eigenvalues --    3.69187   3.74086   3.76440   3.83541   3.83689
 Alpha virt. eigenvalues --    3.87319   3.94905   3.96606   4.02861   4.06855
 Alpha virt. eigenvalues --    4.10488   4.11023   4.11789   4.19221   4.27509
 Alpha virt. eigenvalues --    4.30495   4.34833   4.48050   4.49125   4.56576
 Alpha virt. eigenvalues --    4.59135   4.60730   4.61590   4.62139   4.64189
 Alpha virt. eigenvalues --    4.64597   4.65450   4.66259   4.67699   4.68426
 Alpha virt. eigenvalues --    4.68856   4.69831   4.70068   4.71300   4.71397
 Alpha virt. eigenvalues --    4.73157   4.73949   4.76064   4.77987   4.78541
 Alpha virt. eigenvalues --    4.80434   4.84975   4.87804   4.88396   4.91637
 Alpha virt. eigenvalues --    4.91812   4.92087   4.93888   5.01843   5.08705
 Alpha virt. eigenvalues --    5.12534   5.13223   5.13689   5.13885   5.17061
 Alpha virt. eigenvalues --    5.18326   5.25302   5.26183   5.29662   5.36609
 Alpha virt. eigenvalues --    5.40225   5.44718   5.51132   5.51810   5.58088
 Alpha virt. eigenvalues --    5.62415   5.66229   5.75388   5.79679   5.98403
 Alpha virt. eigenvalues --    6.00303   6.21160   6.27105   6.38144   6.38976
 Alpha virt. eigenvalues --    6.43847   6.45723   6.47617   6.48875   6.50277
 Alpha virt. eigenvalues --    6.52170   6.52406   6.53632   6.53813   6.53854
 Alpha virt. eigenvalues --    6.55065   6.57184   6.59470   6.59528   6.60023
 Alpha virt. eigenvalues --    6.60389   6.60739   6.61064   6.61444   6.61568
 Alpha virt. eigenvalues --    6.61871   6.62265   6.62446   6.64040   6.64186
 Alpha virt. eigenvalues --    6.64841   6.66079   6.67338   6.72312   6.72899
 Alpha virt. eigenvalues --    6.72942   6.73977   6.73997   6.74269   6.74865
 Alpha virt. eigenvalues --    6.78644   6.79128   6.79616   6.83098   6.84668
 Alpha virt. eigenvalues --    6.85250   6.85662   6.88208   6.90669   6.92388
 Alpha virt. eigenvalues --    6.93829   6.94040   6.95707   7.07737   7.08479
 Alpha virt. eigenvalues --    7.09776   7.18403   7.19201   7.24036   7.25180
 Alpha virt. eigenvalues --    7.30765   7.32537   7.33186   7.37260   7.39998
 Alpha virt. eigenvalues --    7.40757   7.44093   7.47714   7.52285   7.54761
 Alpha virt. eigenvalues --    7.55340   7.56038   7.62315   7.69932   7.71002
 Alpha virt. eigenvalues --    7.72864   7.73900   7.85538   7.89242   7.91038
 Alpha virt. eigenvalues --    7.96587   8.05390   8.06378   8.07427   8.16322
 Alpha virt. eigenvalues --    8.16792   8.23549   8.29577   8.35381   8.51697
 Alpha virt. eigenvalues --    8.64077   8.87691   8.97262   9.07340   9.08716
 Alpha virt. eigenvalues --    9.11555   9.14896   9.28594   9.51329  14.47829
 Alpha virt. eigenvalues --   14.52371  14.54464  14.66249  14.69535  14.72844
 Alpha virt. eigenvalues --   14.88561  15.09417  15.09916  15.45273  19.36648
 Alpha virt. eigenvalues --   19.37331  19.38156  19.39481  19.39582  19.41635
 Alpha virt. eigenvalues --   19.43358  19.44746  19.44840  19.44870  19.45175
 Alpha virt. eigenvalues --   19.45872  19.45967  19.46123  19.47117  19.48799
 Alpha virt. eigenvalues --   19.51395  19.52241  19.54391  19.55479  19.57748
 Alpha virt. eigenvalues --   19.58011  19.58463  19.58549  19.73409  19.74047
 Alpha virt. eigenvalues --   19.97541  19.98910  20.00004  20.00500  24.38171
 Alpha virt. eigenvalues --   24.40290  24.84602  25.08728  25.86452  50.34971
 Alpha virt. eigenvalues --   50.45775  66.90659  66.91330  66.94252  66.95266
 Alpha virt. eigenvalues --   66.96816  66.97669
          Condensed to atoms (all electrons):
               1          2          3          4          5          6
     1  C    7.477746   0.179456   0.178388   0.162052  -2.025446  -0.403802
     2  F    0.179456   9.406904  -0.044903  -0.046417  -0.083646  -0.039654
     3  F    0.178388  -0.044903   9.406845  -0.046468  -0.081742  -0.040383
     4  F    0.162052  -0.046417  -0.046468   9.509263  -0.190855   0.009569
     5  C   -2.025446  -0.083646  -0.081742  -0.190855  12.945601  -3.157724
     6  C   -0.403802  -0.039654  -0.040383   0.009569  -3.157724  10.643712
     7  C   -0.651076   0.005591   0.005610   0.027576  -0.534712  -1.430816
     8  O   -0.010297   0.000250   0.000252   0.000608  -0.147657  -0.091094
     9  C   -0.152618   0.001739   0.001728  -0.002855  -1.191949  -0.080966
    10  F   -0.000919  -0.000009   0.000002   0.000183   0.020968  -0.022585
    11  F   -0.000911   0.000002  -0.000009   0.000185   0.021228  -0.022621
    12  F    0.000105  -0.000003  -0.000003  -0.000005   0.017773   0.072309
    13  H    0.024114  -0.001582  -0.001583   0.003572  -0.035993   0.276595
    14  O   -0.114552  -0.000970  -0.001141   0.006450   0.423991  -0.166589
    15  H    0.021829   0.000780   0.000792  -0.000271   0.036691  -0.086409
               7          8          9         10         11         12
     1  C   -0.651076  -0.010297  -0.152618  -0.000919  -0.000911   0.000105
     2  F    0.005591   0.000250   0.001739  -0.000009   0.000002  -0.000003
     3  F    0.005610   0.000252   0.001728   0.000002  -0.000009  -0.000003
     4  F    0.027576   0.000608  -0.002855   0.000183   0.000185  -0.000005
     5  C   -0.534712  -0.147657  -1.191949   0.020968   0.021228   0.017773
     6  C   -1.430816  -0.091094  -0.080966  -0.022585  -0.022621   0.072309
     7  C   10.548882   0.432938  -1.954116  -0.089041  -0.089831  -0.206234
     8  O    0.432938   8.437345  -0.037838   0.000165   0.000244   0.020423
     9  C   -1.954116  -0.037838   7.775633   0.162727   0.163016   0.099753
    10  F   -0.089041   0.000165   0.162727   9.398155  -0.044480  -0.052502
    11  F   -0.089831   0.000244   0.163016  -0.044480   9.398506  -0.052476
    12  F   -0.206234   0.020423   0.099753  -0.052502  -0.052476   9.536516
    13  H   -0.029642  -0.002955   0.019503  -0.014331  -0.014323   0.000698
    14  O    0.001115  -0.075263  -0.023358  -0.000021  -0.000022   0.000038
    15  H   -0.032162   0.060467  -0.003458   0.000444   0.000441   0.000785
              13         14         15
     1  C    0.024114  -0.114552   0.021829
     2  F   -0.001582  -0.000970   0.000780
     3  F   -0.001583  -0.001141   0.000792
     4  F    0.003572   0.006450  -0.000271
     5  C   -0.035993   0.423991   0.036691
     6  C    0.276595  -0.166589  -0.086409
     7  C   -0.029642   0.001115  -0.032162
     8  O   -0.002955  -0.075263   0.060467
     9  C    0.019503  -0.023358  -0.003458
    10  F   -0.014331  -0.000021   0.000444
    11  F   -0.014323  -0.000022   0.000441
    12  F    0.000698   0.000038   0.000785
    13  H    0.712534  -0.000336   0.001382
    14  O   -0.000336   8.429935   0.122940
    15  H    0.001382   0.122940   0.464734
 Mulliken charges:
               1
     1  C    1.315931
     2  F   -0.377538
     3  F   -0.377385
     4  F   -0.432588
     5  C   -0.016528
     6  C    0.540456
     7  C   -0.004082
     8  O   -0.587588
     9  C    1.223058
    10  F   -0.358757
    11  F   -0.358949
    12  F   -0.437178
    13  H    0.062347
    14  O   -0.602216
    15  H    0.411016
 Sum of Mulliken charges =  -0.00000
 Mulliken charges with hydrogens summed into heavy atoms:
               1
     1  C    1.315931
     2  F   -0.377538
     3  F   -0.377385
     4  F   -0.432588
     5  C   -0.016528
     6  C    0.602803
     7  C   -0.004082
     8  O   -0.587588
     9  C    1.223058
    10  F   -0.358757
    11  F   -0.358949
    12  F   -0.437178
    14  O   -0.191200
 Electronic spatial extent (au):  <R**2>=           2816.2688
 Charge=             -0.0000 electrons
 Dipole moment (field-independent basis, Debye):
    X=              0.3661    Y=              0.2501    Z=             -0.0013  Tot=              0.4434
 Quadrupole moment (field-independent basis, Debye-Ang):
   XX=            -79.8347   YY=            -71.0689   ZZ=            -70.2060
   XY=             -0.9774   XZ=             -0.0003   YZ=             -0.0002
 Traceless Quadrupole moment (field-independent basis, Debye-Ang):
   XX=             -6.1315   YY=              2.6343   ZZ=              3.4972
   XY=             -0.9774   XZ=             -0.0003   YZ=             -0.0002
 Octapole moment (field-independent basis, Debye-Ang**2):
  XXX=              1.3857  YYY=             14.2578  ZZZ=             -0.0095  XYY=              4.2369
  XXY=             10.4631  XXZ=              0.0015  XZZ=             -1.3404  YZZ=              2.8771
  YYZ=              0.0114  XYZ=             -0.0004
 Hexadecapole moment (field-independent basis, Debye-Ang**3):
 XXXX=          -2334.2143 YYYY=           -448.0379 ZZZZ=           -192.0489 XXXY=             -1.0073
 XXXZ=             -0.0058 YYYX=            -12.1191 YYYZ=              0.0044 ZZZX=             -0.0025
 ZZZY=             -0.0032 XXYY=           -476.2487 XXZZ=           -417.3627 YYZZ=           -109.0884
 XXYZ=             -0.0212 YYXZ=             -0.0001 ZZXY=              4.8183
 N-N= 8.844090484079D+02 E-N=-3.998267844521D+03  KE= 9.384625958739D+02
 Calling FoFJK, ICntrl=      2127 FMM=F ISym2X=0 I1Cent= 0 IOpClX= 0 NMat=1 NMatS=1 NMatT=0.
 -------------------------------------------------------------------
 Center     Atomic                   Forces (Hartrees/Bohr)
 Number     Number              X              Y              Z
 -------------------------------------------------------------------
      1        6           0.012380880    0.006397059    0.000002415
      2        9          -0.008329505   -0.001292880    0.007102682
      3        9          -0.008309987   -0.001329725   -0.007124242
      4        9          -0.003100515   -0.011344687    0.000021927
      5        6          -0.004620801    0.006584165   -0.000003880
      6        6           0.004746130   -0.008854240    0.000000668
      7        6           0.000620160    0.003755659    0.000004629
      8        8          -0.001805375    0.003524740   -0.000002331
      9        6          -0.019051395    0.005303469   -0.000000965
     10        9           0.004129001   -0.007943938   -0.007270962
     11        9           0.004109835   -0.007969345    0.007248401
     12        9           0.013227239    0.004415862    0.000019261
     13        1           0.001614080    0.001445173   -0.000001944
     14        8          -0.000815295   -0.000401251    0.000002443
     15        1           0.005205551    0.007709939    0.000001899
 -------------------------------------------------------------------
 Cartesian Forces:  Max     0.019051395 RMS     0.006173361

 GradGradGradGradGradGradGradGradGradGradGradGradGradGradGradGradGradGrad
 Berny optimization.
 FormGI is forming the generalized inverse of G from B-inverse, IUseBI=4.
 Internal  Forces:  Max     0.013435001 RMS     0.005253031
 Search for a local minimum.
 Step number   1 out of a maximum of   68
 All quantities printed in internal units (Hartrees-Bohrs-Radians)
 Mixed Optimization -- RFO/linear search
 Second derivative matrix not updated -- first step.
 ITU=  0
     Eigenvalues ---    0.00230   0.00376   0.00805   0.01579   0.01670
     Eigenvalues ---    0.02113   0.02632   0.02924   0.10394   0.10627
     Eigenvalues ---    0.10755   0.10884   0.16000   0.16000   0.22000
     Eigenvalues ---    0.25000   0.25000   0.25000   0.25000   0.25000
     Eigenvalues ---    0.25000   0.25000   0.25000   0.25000   0.25000
     Eigenvalues ---    0.27728   0.29471   0.36496   0.39785   0.48551
     Eigenvalues ---    0.53168   0.56916   0.56919   0.58440   0.58569
     Eigenvalues ---    0.58582   0.60311   0.65335   0.96774
 RFO step:  Lambda=-4.32096411D-03 EMin= 2.30000000D-03
 Linear search not attempted -- first point.
 Iteration  1 RMS(Cart)=  0.04113887 RMS(Int)=  0.00065047
 Iteration  2 RMS(Cart)=  0.00089265 RMS(Int)=  0.00010044
 Iteration  3 RMS(Cart)=  0.00000030 RMS(Int)=  0.00010044
 Variable       Old X    -DE/DX   Delta X   Delta X   Delta X     New X
                                 (Linear)    (Quad)   (Total)
    R1        2.52081  -0.00998   0.00000  -0.01692  -0.01692   2.50389
    R2        2.52091  -0.00999   0.00000  -0.01693  -0.01693   2.50398
    R3        2.52197  -0.01082   0.00000  -0.01837  -0.01837   2.50359
    R4        2.89031  -0.01015   0.00000  -0.03395  -0.03395   2.85636
    R5        2.56797  -0.00970   0.00000  -0.01809  -0.01809   2.54988
    R6        2.46953  -0.00673   0.00000  -0.01023  -0.01023   2.45929
    R7        2.71846  -0.00163   0.00000  -0.00404  -0.00404   2.71442
    R8        2.03313   0.00137   0.00000   0.00372   0.00372   2.03685
    R9        2.29959  -0.00343   0.00000  -0.00353  -0.00353   2.29606
   R10        2.92737  -0.00542   0.00000  -0.01924  -0.01924   2.90813
   R11        2.53468  -0.01069   0.00000  -0.01865  -0.01865   2.51603
   R12        2.53465  -0.01069   0.00000  -0.01864  -0.01864   2.51601
   R13        2.50695  -0.01344   0.00000  -0.02212  -0.02212   2.48483
   R14        1.88056  -0.00810   0.00000  -0.01654  -0.01654   1.86402
    A1        1.87811   0.00489   0.00000   0.01526   0.01489   1.89300
    A2        1.87326   0.00620   0.00000   0.02635   0.02619   1.89946
    A3        1.94083  -0.00557   0.00000  -0.02295  -0.02321   1.91762
    A4        1.87320   0.00620   0.00000   0.02636   0.02620   1.89941
    A5        1.94068  -0.00558   0.00000  -0.02297  -0.02324   1.91744
    A6        1.95403  -0.00502   0.00000  -0.01765  -0.01781   1.93622
    A7        2.11584   0.00513   0.00000   0.02016   0.02016   2.13600
    A8        1.97084  -0.00473   0.00000  -0.01860  -0.01860   1.95224
    A9        2.19650  -0.00040   0.00000  -0.00156  -0.00156   2.19494
   A10        2.06809  -0.00166   0.00000  -0.00739  -0.00739   2.06070
   A11        2.12016  -0.00088   0.00000  -0.00668  -0.00668   2.11349
   A12        2.09493   0.00253   0.00000   0.01407   0.01407   2.10900
   A13        2.18742  -0.00012   0.00000  -0.00047  -0.00047   2.18694
   A14        1.99211   0.00479   0.00000   0.01882   0.01882   2.01093
   A15        2.10366  -0.00466   0.00000  -0.01834  -0.01834   2.08532
   A16        1.93140  -0.00539   0.00000  -0.02136  -0.02156   1.90984
   A17        1.93158  -0.00538   0.00000  -0.02133  -0.02152   1.91006
   A18        1.96623  -0.00386   0.00000  -0.01487  -0.01502   1.95121
   A19        1.86510   0.00532   0.00000   0.02030   0.02007   1.88516
   A20        1.88286   0.00514   0.00000   0.02050   0.02035   1.90321
   A21        1.88284   0.00513   0.00000   0.02048   0.02033   1.90317
   A22        1.91460  -0.00859   0.00000  -0.05226  -0.05226   1.86235
    D1       -2.09767  -0.00064   0.00000  -0.00519  -0.00510  -2.10277
    D2        1.04410  -0.00064   0.00000  -0.00507  -0.00498   1.03912
    D3        2.09297   0.00065   0.00000   0.00629   0.00620   2.09918
    D4       -1.04844   0.00065   0.00000   0.00641   0.00632  -1.04212
    D5       -0.00226   0.00000   0.00000   0.00055   0.00055  -0.00171
    D6        3.13951   0.00001   0.00000   0.00067   0.00067   3.14018
    D7       -3.14143   0.00000   0.00000   0.00016   0.00016  -3.14127
    D8        0.00022   0.00000   0.00000   0.00016   0.00016   0.00038
    D9       -0.00004   0.00000   0.00000   0.00002   0.00002  -0.00002
   D10       -3.14158   0.00000   0.00000   0.00002   0.00002  -3.14156
   D11        3.14143  -0.00000   0.00000  -0.00016  -0.00016   3.14127
   D12        0.00002  -0.00000   0.00000  -0.00003  -0.00003  -0.00001
   D13       -0.00002   0.00000   0.00000   0.00008   0.00008   0.00006
   D14        3.14138   0.00000   0.00000   0.00001   0.00001   3.14139
   D15        3.14152   0.00000   0.00000   0.00007   0.00007   3.14159
   D16       -0.00026   0.00000   0.00000   0.00001   0.00001  -0.00026
   D17       -1.03403   0.00010   0.00000   0.00126   0.00122  -1.03281
   D18        1.03016  -0.00010   0.00000  -0.00048  -0.00044   1.02972
   D19        3.13972   0.00000   0.00000   0.00039   0.00039   3.14010
   D20        2.10738   0.00010   0.00000   0.00120   0.00116   2.10855
   D21       -2.11161  -0.00010   0.00000  -0.00054  -0.00050  -2.11211
   D22       -0.00206   0.00000   0.00000   0.00033   0.00033  -0.00173
         Item               Value     Threshold  Converged?
 Maximum Force            0.013435     0.000015     NO 
 RMS     Force            0.005253     0.000010     NO 
 Maximum Displacement     0.165591     0.000060     NO 
 RMS     Displacement     0.041152     0.000040     NO 
 Predicted change in Energy=-2.190893D-03
 GradGradGradGradGradGradGradGradGradGradGradGradGradGradGradGradGradGrad

                          Input orientation:                          
 ---------------------------------------------------------------------
 Center     Atomic      Atomic             Coordinates (Angstroms)
 Number     Number       Type             X           Y           Z
 ---------------------------------------------------------------------
      1          6           0        2.495548    0.281448    0.000036
      2          9           0        3.193219   -0.058823   -1.073788
      3          9           0        3.190884   -0.055771    1.076396
      4          9           0        2.320800    1.594716   -0.001991
      5          6           0        1.167407   -0.440176   -0.000240
      6          6           0       -0.011613    0.216042   -0.000371
      7          6           0       -1.218585   -0.562734   -0.000227
      8          8           0       -1.270972   -1.776626    0.000062
      9          6           0       -2.524357    0.251652   -0.000113
     10          9           0       -2.559489    1.031938    1.078136
     11          9           0       -2.558212    1.034801   -1.076310
     12          9           0       -3.584725   -0.525920   -0.001804
     13          1           0       -0.049127    1.293243   -0.000630
     14          8           0        1.318371   -1.732793    0.000031
     15          1           0        0.412869   -2.123999    0.000128
 ---------------------------------------------------------------------
                    Distance matrix (angstroms):
                    1          2          3          4          5
     1  C    0.000000
     2  F    1.325000   0.000000
     3  F    1.325051   2.150187   0.000000
     4  F    1.324845   2.155007   2.155011   0.000000
     5  C    1.511522   2.324188   2.324085   2.339039   0.000000
     6  C    2.508014   3.390977   3.389587   2.709408   1.349337
     7  C    3.808862   4.568421   4.567225   4.145098   2.389137
     8  O    4.292125   4.902346   4.901836   4.926131   2.780609
     9  C    5.019994   5.825791   5.823862   5.027859   3.756028
    10  F    5.222924   6.238123   5.852342   5.029971   4.149670
    11  F    5.221739   5.854484   6.235030   5.027168   4.148942
    12  F    6.133642   6.878070   6.876949   6.274736   4.752905
    13  H    2.738449   3.673221   3.671171   2.389025   2.117710
    14  O    2.333005   2.733188   2.734460   3.475224   1.301402
    15  H    3.181780   3.626099   3.626746   4.179599   1.845153
                    6          7          8          9         10
     6  C    0.000000
     7  C    1.436410   0.000000
     8  O    2.357267   1.215022   0.000000
     9  C    2.512996   1.538917   2.384300   0.000000
    10  F    2.884533   2.346032   3.272698   1.331427   0.000000
    11  F    2.883259   2.346204   3.274093   1.331416   2.154448
    12  F    3.649333   2.366427   2.630157   1.314915   2.155063
    13  H    1.077854   2.193691   3.304088   2.685456   2.744801
    14  O    2.359410   2.793776   2.589714   4.324879   4.883016
    15  H    2.378230   2.258139   1.719299   3.777700   4.467321
                   11         12         13         14         15
    11  F    0.000000
    12  F    2.155027   0.000000
    13  H    2.742150   3.976154   0.000000
    14  O    4.883235   5.049445   3.320684   0.000000
    15  H    4.468117   4.305185   3.448331   0.986395   0.000000
 Symmetry turned off by external request.
 Stoichiometry    C5H2F6O2
 Framework group  C1[X(C5H2F6O2)]
 Deg. of freedom    39
 Full point group                 C1      NOp   1
 Rotational constants (GHZ):           1.7109075           0.3859004           0.3536648
 Standard basis: 6-311++G(3df,3pd) (5D, 7F)
   543 basis functions,   796 primitive gaussians,   623 cartesian basis functions
    51 alpha electrons       51 beta electrons
       nuclear repulsion energy       891.3398738171 Hartrees.
 NAtoms=   15 NActive=   15 NUniq=   15 SFac= 1.00D+00 NAtFMM=   60 NAOKFM=F Big=F
 Integral buffers will be    131072 words long.
 Raffenetti 2 integral format.
 Two-electron integral symmetry is turned off.
 One-electron integrals computed using PRISM.
 NBasis=   543 RedAO= T EigKep=  3.28D-06  NBF=   543
 NBsUse=   543 1.00D-06 EigRej= -1.00D+00 NBFU=   543
 Initial guess from the checkpoint file:  "/home/artemiy/opt/gaussian/scr/Gau-6512.chk"
 B after Tr=     0.000657   -0.021301    0.000019
         Rot=    1.000000   -0.000011   -0.000001   -0.000151 Ang=  -0.02 deg.
 ExpMin= 3.60D-02 ExpMax= 1.14D+04 ExpMxC= 1.72D+03 IAcc=3 IRadAn=         5 AccDes= 0.00D+00
 Harris functional with IExCor= 1009 and IRadAn=       5 diagonalized for initial guess.
 HarFok:  IExCor= 1009 AccDes= 0.00D+00 IRadAn=         5 IDoV= 1 UseB2=F ITyADJ=14
 ICtDFT=  3500011 ScaDFX=  1.000000  1.000000  1.000000  1.000000
 FoFCou: FMM=F IPFlag=           0 FMFlag=      100000 FMFlg1=           0
         NFxFlg=           0 DoJE=T BraDBF=F KetDBF=T FulRan=T
         wScrn=  0.000000 ICntrl=       500 IOpCl=  0 I1Cent=   200000004 NGrid=           0
         NMat0=    1 NMatS0=      1 NMatT0=    0 NMatD0=    1 NMtDS0=    0 NMtDT0=    0
 Symmetry not used in FoFCou.
 Requested convergence on RMS density matrix=1.00D-08 within 128 cycles.
 Requested convergence on MAX density matrix=1.00D-06.
 Requested convergence on             energy=1.00D-06.
 No special actions if energy rises.
 SCF Done:  E(RM06) =  -941.195570824     A.U. after   11 cycles
            NFock= 11  Conv=0.55D-08     -V/T= 2.0026
 Calling FoFJK, ICntrl=      2127 FMM=F ISym2X=0 I1Cent= 0 IOpClX= 0 NMat=1 NMatS=1 NMatT=0.
 -------------------------------------------------------------------
 Center     Atomic                   Forces (Hartrees/Bohr)
 Number     Number              X              Y              Z
 -------------------------------------------------------------------
      1        6          -0.000241851    0.000336162    0.000002101
      2        9           0.000336965    0.001959953    0.001826037
      3        9           0.000339885    0.001948828   -0.001838347
      4        9           0.003243689   -0.002174645    0.000008133
      5        6           0.000092015    0.003213553    0.000006890
      6        6          -0.002202034   -0.002155775   -0.000007239
      7        6           0.000046140    0.005101263    0.000004001
      8        8           0.000618367   -0.003025575   -0.000004410
      9        6          -0.002238505   -0.001847390   -0.000005839
     10        9          -0.001261113   -0.000599853   -0.001881633
     11        9          -0.001262668   -0.000605936    0.001877880
     12        9           0.002644787    0.003674941    0.000009103
     13        1           0.000244995   -0.000181793   -0.000000122
     14        8           0.000858706   -0.001762418    0.000001458
     15        1          -0.001219379   -0.003881316    0.000001989
 -------------------------------------------------------------------
 Cartesian Forces:  Max     0.005101263 RMS     0.001799929

 GradGradGradGradGradGradGradGradGradGradGradGradGradGradGradGradGradGrad
 Berny optimization.
 Using GEDIIS/GDIIS optimizer.
 FormGI is forming the generalized inverse of G from B-inverse, IUseBI=4.
 Internal  Forces:  Max     0.005739584 RMS     0.002068720
 Search for a local minimum.
 Step number   2 out of a maximum of   68
 All quantities printed in internal units (Hartrees-Bohrs-Radians)
 Mixed Optimization -- RFO/linear search
 Update second derivatives using D2CorX and points    1    2
 DE= -1.74D-03 DEPred=-2.19D-03 R= 7.95D-01
 TightC=F SS=  1.41D+00  RLast= 1.20D-01 DXNew= 5.0454D-01 3.5934D-01
 Trust test= 7.95D-01 RLast= 1.20D-01 DXMaxT set to 3.59D-01
 ITU=  1  0
 Use linear search instead of GDIIS.
     Eigenvalues ---    0.00230   0.00376   0.00812   0.01579   0.01669
     Eigenvalues ---    0.02107   0.02632   0.02924   0.10720   0.10961
     Eigenvalues ---    0.11185   0.11264   0.15914   0.17002   0.21732
     Eigenvalues ---    0.23585   0.25000   0.25000   0.25000   0.25000
     Eigenvalues ---    0.25000   0.25000   0.25000   0.25000   0.27332
     Eigenvalues ---    0.28440   0.34725   0.36528   0.39747   0.49039
     Eigenvalues ---    0.50434   0.54740   0.56917   0.57612   0.58505
     Eigenvalues ---    0.58576   0.59880   0.68267   0.97475
 RFO step:  Lambda=-4.28359398D-04 EMin= 2.29999984D-03
 Quartic linear search produced a step of -0.16940.
 Iteration  1 RMS(Cart)=  0.01480163 RMS(Int)=  0.00012909
 Iteration  2 RMS(Cart)=  0.00013700 RMS(Int)=  0.00001334
 Iteration  3 RMS(Cart)=  0.00000001 RMS(Int)=  0.00001334
 Variable       Old X    -DE/DX   Delta X   Delta X   Delta X     New X
                                 (Linear)    (Quad)   (Total)
    R1        2.50389  -0.00181   0.00287  -0.00722  -0.00435   2.49954
    R2        2.50398  -0.00181   0.00287  -0.00723  -0.00436   2.49962
    R3        2.50359  -0.00258   0.00311  -0.00873  -0.00562   2.49798
    R4        2.85636   0.00422   0.00575   0.00233   0.00808   2.86445
    R5        2.54988   0.00316   0.00307  -0.00006   0.00300   2.55288
    R6        2.45929   0.00556   0.00173   0.00426   0.00599   2.46529
    R7        2.71442  -0.00025   0.00068  -0.00164  -0.00095   2.71347
    R8        2.03685  -0.00019  -0.00063   0.00060  -0.00003   2.03682
    R9        2.29606   0.00300   0.00060   0.00161   0.00220   2.29826
   R10        2.90813   0.00213   0.00326   0.00094   0.00420   2.91234
   R11        2.51603  -0.00184   0.00316  -0.00782  -0.00466   2.51137
   R12        2.51601  -0.00184   0.00316  -0.00782  -0.00466   2.51135
   R13        2.48483  -0.00431   0.00375  -0.01201  -0.00827   2.47656
   R14        1.86402   0.00266   0.00280  -0.00003   0.00277   1.86679
    A1        1.89300  -0.00209  -0.00252  -0.00264  -0.00511   1.88790
    A2        1.89946  -0.00323  -0.00444  -0.00346  -0.00790   1.89156
    A3        1.91762   0.00216   0.00393   0.00059   0.00455   1.92217
    A4        1.89941  -0.00323  -0.00444  -0.00344  -0.00788   1.89153
    A5        1.91744   0.00216   0.00394   0.00057   0.00454   1.92198
    A6        1.93622   0.00400   0.00302   0.00808   0.01109   1.94731
    A7        2.13600  -0.00002  -0.00342   0.00566   0.00224   2.13824
    A8        1.95224  -0.00161   0.00315  -0.01062  -0.00747   1.94478
    A9        2.19494   0.00163   0.00026   0.00496   0.00523   2.20016
   A10        2.06070   0.00321   0.00125   0.00997   0.01122   2.07192
   A11        2.11349  -0.00185   0.00113  -0.00926  -0.00813   2.10536
   A12        2.10900  -0.00136  -0.00238  -0.00071  -0.00309   2.10591
   A13        2.18694  -0.00182   0.00008  -0.00617  -0.00609   2.18085
   A14        2.01093   0.00192  -0.00319   0.01171   0.00852   2.01945
   A15        2.08532  -0.00010   0.00311  -0.00554  -0.00243   2.08289
   A16        1.90984   0.00182   0.00365  -0.00007   0.00361   1.91345
   A17        1.91006   0.00182   0.00365  -0.00006   0.00361   1.91367
   A18        1.95121   0.00159   0.00254   0.00088   0.00345   1.95466
   A19        1.88516  -0.00172  -0.00340   0.00011  -0.00325   1.88191
   A20        1.90321  -0.00183  -0.00345  -0.00045  -0.00388   1.89933
   A21        1.90317  -0.00183  -0.00344  -0.00044  -0.00386   1.89931
   A22        1.86235   0.00574   0.00885   0.01453   0.02338   1.88573
    D1       -2.10277   0.00005   0.00086   0.00010   0.00094  -2.10183
    D2        1.03912   0.00005   0.00084   0.00009   0.00092   1.04004
    D3        2.09918  -0.00004  -0.00105   0.00263   0.00160   2.10077
    D4       -1.04212  -0.00004  -0.00107   0.00262   0.00157  -1.04055
    D5       -0.00171   0.00000  -0.00009   0.00136   0.00126  -0.00045
    D6        3.14018   0.00000  -0.00011   0.00135   0.00124   3.14142
    D7       -3.14127  -0.00000  -0.00003   0.00003   0.00000  -3.14127
    D8        0.00038  -0.00000  -0.00003   0.00003  -0.00000   0.00038
    D9       -0.00002   0.00000  -0.00000   0.00003   0.00003   0.00001
   D10       -3.14156   0.00000  -0.00000   0.00003   0.00003  -3.14153
   D11        3.14127  -0.00000   0.00003  -0.00007  -0.00004   3.14123
   D12       -0.00001  -0.00000   0.00001  -0.00007  -0.00007  -0.00008
   D13        0.00006  -0.00000  -0.00001  -0.00007  -0.00008  -0.00003
   D14        3.14139   0.00000  -0.00000   0.00005   0.00004   3.14144
   D15        3.14159  -0.00000  -0.00001  -0.00007  -0.00008   3.14151
   D16       -0.00026   0.00000  -0.00000   0.00005   0.00005  -0.00021
   D17       -1.03281  -0.00003  -0.00021   0.00091   0.00071  -1.03210
   D18        1.02972   0.00003   0.00007   0.00097   0.00104   1.03076
   D19        3.14010   0.00000  -0.00007   0.00095   0.00088   3.14098
   D20        2.10855  -0.00003  -0.00020   0.00102   0.00083   2.10937
   D21       -2.11211   0.00003   0.00008   0.00108   0.00116  -2.11095
   D22       -0.00173   0.00000  -0.00006   0.00106   0.00100  -0.00073
         Item               Value     Threshold  Converged?
 Maximum Force            0.005740     0.000015     NO 
 RMS     Force            0.002069     0.000010     NO 
 Maximum Displacement     0.062357     0.000060     NO 
 RMS     Displacement     0.014833     0.000040     NO 
 Predicted change in Energy=-2.957247D-04
 GradGradGradGradGradGradGradGradGradGradGradGradGradGradGradGradGradGrad

                          Input orientation:                          
 ---------------------------------------------------------------------
 Center     Atomic      Atomic             Coordinates (Angstroms)
 Number     Number       Type             X           Y           Z
 ---------------------------------------------------------------------
      1          6           0        2.499121    0.283458    0.000168
      2          9           0        3.200045   -0.050902   -1.070551
      3          9           0        3.198896   -0.050118    1.071940
      4          9           0        2.337645    1.595430   -0.000383
      5          6           0        1.168140   -0.441897   -0.000129
      6          6           0       -0.014567    0.210946   -0.000363
      7          6           0       -1.227084   -0.558226   -0.000227
      8          8           0       -1.281494   -1.773196    0.000061
      9          6           0       -2.535402    0.256282   -0.000298
     10          9           0       -2.575051    1.037547    1.074033
     11          9           0       -2.574613    1.038580   -1.073879
     12          9           0       -3.594284   -0.515912   -0.000905
     13          1           0       -0.047102    1.288295   -0.000695
     14          8           0        1.330785   -1.736292    0.000208
     15          1           0        0.436983   -2.156997    0.000337
 ---------------------------------------------------------------------
                    Distance matrix (angstroms):
                    1          2          3          4          5
     1  C    0.000000
     2  F    1.322699   0.000000
     3  F    1.322744   2.142491   0.000000
     4  F    1.321872   2.144622   2.144635   0.000000
     5  C    1.515800   2.329661   2.329548   2.349137   0.000000
     6  C    2.514733   3.398176   3.397695   2.729413   1.350925
     7  C    3.820084   4.582843   4.582251   4.164796   2.398048
     8  O    4.303821   4.919015   4.918518   4.944270   2.788022
     9  C    5.034596   5.842530   5.841725   5.053702   3.768776
    10  F    5.241093   6.255853   5.875499   5.059662   4.165820
    11  F    5.240855   5.876535   6.254855   5.058928   4.165688
    12  F    6.145615   6.893714   6.893132   6.296471   4.763000
    13  H    2.737325   3.671785   3.671294   2.404444   2.114327
    14  O    2.333323   2.735179   2.735257   3.480537   1.304573
    15  H    3.195033   3.635513   3.635305   4.206332   1.864446
                    6          7          8          9         10
     6  C    0.000000
     7  C    1.435906   0.000000
     8  O    2.354129   1.216188   0.000000
     9  C    2.521243   1.541142   2.385596   0.000000
    10  F    2.897184   2.348945   3.275207   1.328960   0.000000
    11  F    2.896766   2.349117   3.275911   1.328949   2.147912
    12  F    3.652767   2.367578   2.632444   1.310541   2.146524
    13  H    1.077840   2.191347   3.300978   2.693824   2.758340
    14  O    2.366792   2.816120   2.612539   4.349454   4.909464
    15  H    2.410613   2.307638   1.760815   3.828706   4.519988
                   11         12         13         14         15
    11  F    0.000000
    12  F    2.146497   0.000000
    13  H    2.757244   3.979657   0.000000
    14  O    4.909757   5.074016   3.323657   0.000000
    15  H    4.520550   4.352503   3.479135   0.987863   0.000000
 Symmetry turned off by external request.
 Stoichiometry    C5H2F6O2
 Framework group  C1[X(C5H2F6O2)]
 Deg. of freedom    39
 Full point group                 C1      NOp   1
 Rotational constants (GHZ):           1.7125179           0.3831896           0.3511708
 Standard basis: 6-311++G(3df,3pd) (5D, 7F)
   543 basis functions,   796 primitive gaussians,   623 cartesian basis functions
    51 alpha electrons       51 beta electrons
       nuclear repulsion energy       890.2149047000 Hartrees.
 NAtoms=   15 NActive=   15 NUniq=   15 SFac= 1.00D+00 NAtFMM=   60 NAOKFM=F Big=F
 Integral buffers will be    131072 words long.
 Raffenetti 2 integral format.
 Two-electron integral symmetry is turned off.
 One-electron integrals computed using PRISM.
 NBasis=   543 RedAO= T EigKep=  3.34D-06  NBF=   543
 NBsUse=   543 1.00D-06 EigRej= -1.00D+00 NBFU=   543
 Initial guess from the checkpoint file:  "/home/artemiy/opt/gaussian/scr/Gau-6512.chk"
 B after Tr=    -0.002879    0.005386   -0.000026
         Rot=    1.000000   -0.000016   -0.000003    0.000161 Ang=  -0.02 deg.
 ExpMin= 3.60D-02 ExpMax= 1.14D+04 ExpMxC= 1.72D+03 IAcc=3 IRadAn=         5 AccDes= 0.00D+00
 Harris functional with IExCor= 1009 and IRadAn=       5 diagonalized for initial guess.
 HarFok:  IExCor= 1009 AccDes= 0.00D+00 IRadAn=         5 IDoV= 1 UseB2=F ITyADJ=14
 ICtDFT=  3500011 ScaDFX=  1.000000  1.000000  1.000000  1.000000
 FoFCou: FMM=F IPFlag=           0 FMFlag=      100000 FMFlg1=           0
         NFxFlg=           0 DoJE=T BraDBF=F KetDBF=T FulRan=T
         wScrn=  0.000000 ICntrl=       500 IOpCl=  0 I1Cent=   200000004 NGrid=           0
         NMat0=    1 NMatS0=      1 NMatT0=    0 NMatD0=    1 NMtDS0=    0 NMtDT0=    0
 Symmetry not used in FoFCou.
 Requested convergence on RMS density matrix=1.00D-08 within 128 cycles.
 Requested convergence on MAX density matrix=1.00D-06.
 Requested convergence on             energy=1.00D-06.
 No special actions if energy rises.
 SCF Done:  E(RM06) =  -941.195823664     A.U. after   11 cycles
            NFock= 11  Conv=0.25D-08     -V/T= 2.0026
 Calling FoFJK, ICntrl=      2127 FMM=F ISym2X=0 I1Cent= 0 IOpClX= 0 NMat=1 NMatS=1 NMatT=0.
 -------------------------------------------------------------------
 Center     Atomic                   Forces (Hartrees/Bohr)
 Number     Number              X              Y              Z
 -------------------------------------------------------------------
      1        6           0.000599821    0.000486590    0.000016744
      2        9           0.000342321   -0.000320885   -0.001081081
      3        9           0.000337838   -0.000313337    0.001064436
      4        9          -0.000401198    0.000560550   -0.000002878
      5        6          -0.001393063    0.001492083    0.000012242
      6        6           0.000262682   -0.000991527   -0.000007913
      7        6           0.000333276    0.000163140   -0.000010241
      8        8           0.000557394   -0.000853089    0.000001665
      9        6          -0.000415679   -0.000816108    0.000005297
     10        9          -0.000020196    0.000773351    0.000883402
     11        9          -0.000009759    0.000768651   -0.000882557
     12        9           0.000025448   -0.000180304    0.000001000
     13        1           0.000271645    0.000224370    0.000004155
     14        8          -0.001085262   -0.001774038    0.000001603
     15        1           0.000594731    0.000780553   -0.000005873
 -------------------------------------------------------------------
 Cartesian Forces:  Max     0.001774038 RMS     0.000653786

 GradGradGradGradGradGradGradGradGradGradGradGradGradGradGradGradGradGrad
 Berny optimization.
 Using GEDIIS/GDIIS optimizer.
 FormGI is forming the generalized inverse of G from B-inverse, IUseBI=4.
 Internal  Forces:  Max     0.001501689 RMS     0.000576205
 Search for a local minimum.
 Step number   3 out of a maximum of   68
 All quantities printed in internal units (Hartrees-Bohrs-Radians)
 Mixed Optimization -- En-DIIS/RFO-DIIS
 Update second derivatives using D2CorX and points    1    2    3
 DE= -2.53D-04 DEPred=-2.96D-04 R= 8.55D-01
 TightC=F SS=  1.41D+00  RLast= 4.10D-02 DXNew= 6.0433D-01 1.2309D-01
 Trust test= 8.55D-01 RLast= 4.10D-02 DXMaxT set to 3.59D-01
 ITU=  1  1  0
 Use linear search instead of GDIIS.
     Eigenvalues ---    0.00230   0.00376   0.00810   0.01579   0.01675
     Eigenvalues ---    0.02105   0.02632   0.02924   0.10655   0.10807
     Eigenvalues ---    0.11129   0.11199   0.15644   0.17251   0.22094
     Eigenvalues ---    0.22723   0.25000   0.25000   0.25000   0.25000
     Eigenvalues ---    0.25000   0.25000   0.25000   0.25651   0.27819
     Eigenvalues ---    0.29276   0.34886   0.36615   0.39684   0.48808
     Eigenvalues ---    0.51320   0.56917   0.57460   0.58313   0.58575
     Eigenvalues ---    0.59345   0.62527   0.67041   0.96751
 RFO step:  Lambda=-3.59582292D-05 EMin= 2.29994604D-03
 Quartic linear search produced a step of -0.11475.
 Iteration  1 RMS(Cart)=  0.00607194 RMS(Int)=  0.00001283
 Iteration  2 RMS(Cart)=  0.00001735 RMS(Int)=  0.00000078
 Iteration  3 RMS(Cart)=  0.00000000 RMS(Int)=  0.00000078
 Variable       Old X    -DE/DX   Delta X   Delta X   Delta X     New X
                                 (Linear)    (Quad)   (Total)
    R1        2.49954   0.00114   0.00050   0.00099   0.00148   2.50102
    R2        2.49962   0.00112   0.00050   0.00096   0.00146   2.50108
    R3        2.49798   0.00060   0.00064  -0.00002   0.00063   2.49861
    R4        2.86445   0.00097  -0.00093   0.00450   0.00358   2.86802
    R5        2.55288  -0.00132  -0.00034  -0.00146  -0.00180   2.55108
    R6        2.46529   0.00093  -0.00069   0.00237   0.00168   2.46696
    R7        2.71347  -0.00033   0.00011  -0.00085  -0.00074   2.71273
    R8        2.03682   0.00022   0.00000   0.00048   0.00048   2.03730
    R9        2.29826   0.00083  -0.00025   0.00115   0.00090   2.29916
   R10        2.91234   0.00065  -0.00048   0.00290   0.00241   2.91475
   R11        2.51137   0.00117   0.00054   0.00104   0.00157   2.51294
   R12        2.51135   0.00117   0.00054   0.00103   0.00157   2.51292
   R13        2.47656   0.00008   0.00095  -0.00124  -0.00029   2.47627
   R14        1.86679  -0.00087  -0.00032  -0.00092  -0.00124   1.86555
    A1        1.88790   0.00046   0.00059   0.00123   0.00182   1.88971
    A2        1.89156   0.00030   0.00091  -0.00092  -0.00001   1.89154
    A3        1.92217  -0.00026  -0.00052   0.00025  -0.00027   1.92189
    A4        1.89153   0.00030   0.00090  -0.00090   0.00001   1.89154
    A5        1.92198  -0.00025  -0.00052   0.00032  -0.00020   1.92178
    A6        1.94731  -0.00051  -0.00127   0.00003  -0.00124   1.94607
    A7        2.13824   0.00064  -0.00026   0.00246   0.00221   2.14045
    A8        1.94478   0.00086   0.00086   0.00174   0.00259   1.94737
    A9        2.20016  -0.00150  -0.00060  -0.00420  -0.00480   2.19537
   A10        2.07192  -0.00111  -0.00129  -0.00225  -0.00353   2.06839
   A11        2.10536   0.00027   0.00093  -0.00076   0.00017   2.10553
   A12        2.10591   0.00084   0.00035   0.00301   0.00336   2.10927
   A13        2.18085  -0.00077   0.00070  -0.00374  -0.00304   2.17781
   A14        2.01945   0.00018  -0.00098   0.00201   0.00104   2.02048
   A15        2.08289   0.00059   0.00028   0.00172   0.00200   2.08489
   A16        1.91345   0.00009  -0.00041   0.00108   0.00067   1.91412
   A17        1.91367   0.00007  -0.00041   0.00100   0.00058   1.91425
   A18        1.95466  -0.00027  -0.00040  -0.00012  -0.00052   1.95414
   A19        1.88191  -0.00012   0.00037  -0.00129  -0.00091   1.88100
   A20        1.89933   0.00011   0.00044  -0.00038   0.00007   1.89940
   A21        1.89931   0.00012   0.00044  -0.00036   0.00008   1.89939
   A22        1.88573  -0.00085  -0.00268   0.00004  -0.00265   1.88308
    D1       -2.10183   0.00013  -0.00011   0.00093   0.00082  -2.10100
    D2        1.04004   0.00012  -0.00011   0.00066   0.00055   1.04059
    D3        2.10077  -0.00012  -0.00018  -0.00094  -0.00112   2.09965
    D4       -1.04055  -0.00012  -0.00018  -0.00121  -0.00139  -1.04194
    D5       -0.00045  -0.00000  -0.00015  -0.00005  -0.00019  -0.00064
    D6        3.14142  -0.00001  -0.00014  -0.00032  -0.00046   3.14096
    D7       -3.14127  -0.00000  -0.00000  -0.00019  -0.00019  -3.14145
    D8        0.00038  -0.00001   0.00000  -0.00022  -0.00022   0.00015
    D9        0.00001   0.00000  -0.00000   0.00013   0.00012   0.00013
   D10       -3.14153   0.00000  -0.00000   0.00009   0.00008  -3.14145
   D11        3.14123   0.00001   0.00001   0.00028   0.00029   3.14151
   D12       -0.00008   0.00000   0.00001  -0.00000   0.00001  -0.00007
   D13       -0.00003   0.00000   0.00001   0.00006   0.00007   0.00004
   D14        3.14144   0.00000  -0.00001   0.00002   0.00001   3.14145
   D15        3.14151   0.00000   0.00001   0.00010   0.00011  -3.14156
   D16       -0.00021   0.00000  -0.00001   0.00006   0.00005  -0.00015
   D17       -1.03210   0.00003  -0.00008   0.00003  -0.00005  -1.03215
   D18        1.03076  -0.00002  -0.00012  -0.00030  -0.00042   1.03034
   D19        3.14098  -0.00000  -0.00010  -0.00016  -0.00026   3.14072
   D20        2.10937   0.00003  -0.00009  -0.00001  -0.00011   2.10927
   D21       -2.11095  -0.00003  -0.00013  -0.00034  -0.00047  -2.11142
   D22       -0.00073  -0.00000  -0.00011  -0.00020  -0.00031  -0.00104
         Item               Value     Threshold  Converged?
 Maximum Force            0.001502     0.000015     NO 
 RMS     Force            0.000576     0.000010     NO 
 Maximum Displacement     0.021823     0.000060     NO 
 RMS     Displacement     0.006079     0.000040     NO 
 Predicted change in Energy=-2.218408D-05
 GradGradGradGradGradGradGradGradGradGradGradGradGradGradGradGradGradGrad

                          Input orientation:                          
 ---------------------------------------------------------------------
 Center     Atomic      Atomic             Coordinates (Angstroms)
 Number     Number       Type             X           Y           Z
 ---------------------------------------------------------------------
      1          6           0        2.502413    0.282382    0.000137
      2          9           0        3.201857   -0.054163   -1.071837
      3          9           0        3.200736   -0.052741    1.073326
      4          9           0        2.343767    1.595034   -0.000817
      5          6           0        1.167291   -0.439311    0.000010
      6          6           0       -0.013783    0.214512   -0.000246
      7          6           0       -1.224188   -0.557255   -0.000173
      8          8           0       -1.272111   -1.772976    0.000151
      9          6           0       -2.536314    0.253535   -0.000285
     10          9           0       -2.579478    1.035397    1.074506
     11          9           0       -2.578583    1.036855   -1.074032
     12          9           0       -3.592079   -0.522659   -0.001264
     13          1           0       -0.045196    1.292148   -0.000514
     14          8           0        1.322251   -1.735543    0.000186
     15          1           0        0.425435   -2.148216    0.000167
 ---------------------------------------------------------------------
                    Distance matrix (angstroms):
                    1          2          3          4          5
     1  C    0.000000
     2  F    1.323484   0.000000
     3  F    1.323516   2.145163   0.000000
     4  F    1.322205   2.145519   2.145540   0.000000
     5  C    1.517693   2.331663   2.331595   2.350033   0.000000
     6  C    2.517112   3.400122   3.399575   2.732012   1.349971
     7  C    3.820020   4.581642   4.581144   4.166852   2.394386
     8  O    4.297852   4.911198   4.910934   4.941465   2.780171
     9  C    5.038810   5.845469   5.844672   5.061108   3.767855
    10  F    5.248516   6.262408   5.881744   5.070292   4.167444
    11  F    5.247817   5.882499   6.260901   5.068815   4.167038
    12  F    6.147432   6.893705   6.893322   6.302293   4.760100
    13  H    2.740427   3.674729   3.673953   2.408087   2.113783
    14  O    2.337692   2.740290   2.740831   3.483711   1.305462
    15  H    3.197131   3.639061   3.639365   4.206177   1.862984
                    6          7          8          9         10
     6  C    0.000000
     7  C    1.435515   0.000000
     8  O    2.352339   1.216665   0.000000
     9  C    2.522833   1.542419   2.388505   0.000000
    10  F    2.900299   2.351231   3.278782   1.329792   0.000000
    11  F    2.899562   2.351328   3.279617   1.329778   2.148539
    12  F    3.653439   2.368143   2.635440   1.310388   2.147133
    13  H    1.078095   2.193244   3.301562   2.698961   2.764810
    14  O    2.363832   2.805836   2.594632   4.341078   4.904667
    15  H    2.403205   2.291815   1.738525   3.813183   4.507671
                   11         12         13         14         15
    11  F    0.000000
    12  F    2.147112   0.000000
    13  H    2.763271   3.984207   0.000000
    14  O    4.904756   5.061791   3.322172   0.000000
    15  H    4.508071   4.333919   3.472406   0.987207   0.000000
 Symmetry turned off by external request.
 Stoichiometry    C5H2F6O2
 Framework group  C1[X(C5H2F6O2)]
 Deg. of freedom    39
 Full point group                 C1      NOp   1
 Rotational constants (GHZ):           1.7126967           0.3828899           0.3509921
 Standard basis: 6-311++G(3df,3pd) (5D, 7F)
   543 basis functions,   796 primitive gaussians,   623 cartesian basis functions
    51 alpha electrons       51 beta electrons
       nuclear repulsion energy       890.0239566452 Hartrees.
 NAtoms=   15 NActive=   15 NUniq=   15 SFac= 1.00D+00 NAtFMM=   60 NAOKFM=F Big=F
 Integral buffers will be    131072 words long.
 Raffenetti 2 integral format.
 Two-electron integral symmetry is turned off.
 One-electron integrals computed using PRISM.
 NBasis=   543 RedAO= T EigKep=  3.34D-06  NBF=   543
 NBsUse=   543 1.00D-06 EigRej= -1.00D+00 NBFU=   543
 Initial guess from the checkpoint file:  "/home/artemiy/opt/gaussian/scr/Gau-6512.chk"
 B after Tr=     0.001111   -0.002074   -0.000021
         Rot=    1.000000    0.000015    0.000001   -0.000120 Ang=   0.01 deg.
 ExpMin= 3.60D-02 ExpMax= 1.14D+04 ExpMxC= 1.72D+03 IAcc=3 IRadAn=         5 AccDes= 0.00D+00
 Harris functional with IExCor= 1009 and IRadAn=       5 diagonalized for initial guess.
 HarFok:  IExCor= 1009 AccDes= 0.00D+00 IRadAn=         5 IDoV= 1 UseB2=F ITyADJ=14
 ICtDFT=  3500011 ScaDFX=  1.000000  1.000000  1.000000  1.000000
 FoFCou: FMM=F IPFlag=           0 FMFlag=      100000 FMFlg1=           0
         NFxFlg=           0 DoJE=T BraDBF=F KetDBF=T FulRan=T
         wScrn=  0.000000 ICntrl=       500 IOpCl=  0 I1Cent=   200000004 NGrid=           0
         NMat0=    1 NMatS0=      1 NMatT0=    0 NMatD0=    1 NMtDS0=    0 NMtDT0=    0
 Symmetry not used in FoFCou.
 Requested convergence on RMS density matrix=1.00D-08 within 128 cycles.
 Requested convergence on MAX density matrix=1.00D-06.
 Requested convergence on             energy=1.00D-06.
 No special actions if energy rises.
 SCF Done:  E(RM06) =  -941.195834906     A.U. after   10 cycles
            NFock= 10  Conv=0.54D-08     -V/T= 2.0026
 Calling FoFJK, ICntrl=      2127 FMM=F ISym2X=0 I1Cent= 0 IOpClX= 0 NMat=1 NMatS=1 NMatT=0.
 -------------------------------------------------------------------
 Center     Atomic                   Forces (Hartrees/Bohr)
 Number     Number              X              Y              Z
 -------------------------------------------------------------------
      1        6          -0.000004095   -0.000006130    0.000009269
      2        9           0.000012911   -0.000160553   -0.000063730
      3        9           0.000012642   -0.000158029    0.000056334
      4        9          -0.000260168    0.000137162    0.000002292
      5        6           0.000351686   -0.000301463   -0.000013194
      6        6          -0.000524754    0.000135874   -0.000000338
      7        6           0.000242527    0.000643271    0.000005955
      8        8          -0.000785530   -0.000410111   -0.000006646
      9        6          -0.000232218   -0.000426965    0.000002293
     10        9           0.000155604    0.000170817    0.000259395
     11        9           0.000156640    0.000173376   -0.000263464
     12        9           0.000051941   -0.000141725    0.000001034
     13        1           0.000046818    0.000039025    0.000001638
     14        8           0.001124318    0.000278244    0.000005513
     15        1          -0.000348323    0.000027208    0.000003648
 -------------------------------------------------------------------
 Cartesian Forces:  Max     0.001124318 RMS     0.000293731

 GradGradGradGradGradGradGradGradGradGradGradGradGradGradGradGradGradGrad
 Berny optimization.
 Using GEDIIS/GDIIS optimizer.
 FormGI is forming the generalized inverse of G from B-inverse, IUseBI=4.
 Internal  Forces:  Max     0.001522963 RMS     0.000402958
 Search for a local minimum.
 Step number   4 out of a maximum of   68
 All quantities printed in internal units (Hartrees-Bohrs-Radians)
 Mixed Optimization -- En-DIIS/RFO-DIIS
 Swapping is turned off.
 Update second derivatives using D2CorX and points    1    2    3    4
 DE= -1.12D-05 DEPred=-2.22D-05 R= 5.07D-01
 TightC=F SS=  1.41D+00  RLast= 1.14D-02 DXNew= 6.0433D-01 3.4124D-02
 Trust test= 5.07D-01 RLast= 1.14D-02 DXMaxT set to 3.59D-01
 ITU=  1  1  1  0
     Eigenvalues ---    0.00230   0.00376   0.00808   0.01579   0.01670
     Eigenvalues ---    0.02104   0.02632   0.02924   0.10655   0.10827
     Eigenvalues ---    0.11007   0.11188   0.14958   0.17075   0.21037
     Eigenvalues ---    0.23826   0.24857   0.25000   0.25000   0.25000
     Eigenvalues ---    0.25000   0.25000   0.25000   0.26530   0.28336
     Eigenvalues ---    0.34810   0.36580   0.39126   0.44937   0.49420
     Eigenvalues ---    0.52401   0.55993   0.56917   0.58137   0.58575
     Eigenvalues ---    0.58779   0.66594   0.71594   0.95140
 En-DIIS/RFO-DIIS/Sim-DIIS IScMMF=       -3 using points:     4    3
 RFO step:  Lambda=-1.70107987D-05.
 DidBck=T Rises=F RFO-DIIS coefs:    0.79430    0.20570
 Iteration  1 RMS(Cart)=  0.00396913 RMS(Int)=  0.00000425
 Iteration  2 RMS(Cart)=  0.00000731 RMS(Int)=  0.00000006
 Iteration  3 RMS(Cart)=  0.00000000 RMS(Int)=  0.00000006
 Variable       Old X    -DE/DX   Delta X   Delta X   Delta X     New X
                                 (Linear)    (Quad)   (Total)
    R1        2.50102   0.00010  -0.00031   0.00076   0.00045   2.50147
    R2        2.50108   0.00009  -0.00030   0.00074   0.00044   2.50152
    R3        2.49861   0.00017  -0.00013   0.00044   0.00031   2.49892
    R4        2.86802  -0.00030  -0.00074   0.00102   0.00028   2.86830
    R5        2.55108   0.00087   0.00037   0.00021   0.00059   2.55166
    R6        2.46696  -0.00021  -0.00035   0.00058   0.00023   2.46720
    R7        2.71273   0.00034   0.00015   0.00018   0.00034   2.71307
    R8        2.03730   0.00004  -0.00010   0.00028   0.00018   2.03748
    R9        2.29916   0.00044  -0.00019   0.00069   0.00050   2.29967
   R10        2.91475  -0.00023  -0.00050   0.00060   0.00011   2.91486
   R11        2.51294   0.00031  -0.00032   0.00102   0.00070   2.51364
   R12        2.51292   0.00031  -0.00032   0.00102   0.00070   2.51362
   R13        2.47627   0.00004   0.00006  -0.00011  -0.00005   2.47622
   R14        1.86555   0.00031   0.00026  -0.00015   0.00010   1.86565
    A1        1.88971   0.00005  -0.00037   0.00077   0.00040   1.89011
    A2        1.89154   0.00026   0.00000   0.00064   0.00065   1.89219
    A3        1.92189  -0.00011   0.00006  -0.00039  -0.00033   1.92156
    A4        1.89154   0.00025  -0.00000   0.00065   0.00064   1.89218
    A5        1.92178  -0.00010   0.00004  -0.00034  -0.00030   1.92148
    A6        1.94607  -0.00034   0.00025  -0.00125  -0.00100   1.94508
    A7        2.14045  -0.00056  -0.00045  -0.00039  -0.00084   2.13960
    A8        1.94737  -0.00055  -0.00053  -0.00022  -0.00075   1.94662
    A9        2.19537   0.00111   0.00099   0.00061   0.00159   2.19696
   A10        2.06839   0.00152   0.00073   0.00271   0.00344   2.07183
   A11        2.10553  -0.00081  -0.00003  -0.00227  -0.00231   2.10322
   A12        2.10927  -0.00071  -0.00069  -0.00044  -0.00113   2.10814
   A13        2.17781   0.00112   0.00063   0.00136   0.00198   2.17979
   A14        2.02048  -0.00047  -0.00021  -0.00065  -0.00086   2.01962
   A15        2.08489  -0.00065  -0.00041  -0.00071  -0.00112   2.08377
   A16        1.91412  -0.00021  -0.00014  -0.00023  -0.00036   1.91376
   A17        1.91425  -0.00021  -0.00012  -0.00027  -0.00039   1.91386
   A18        1.95414  -0.00013   0.00011  -0.00044  -0.00033   1.95381
   A19        1.88100   0.00013   0.00019  -0.00029  -0.00010   1.88090
   A20        1.89940   0.00021  -0.00001   0.00061   0.00060   1.90000
   A21        1.89939   0.00022  -0.00002   0.00062   0.00061   1.90000
   A22        1.88308  -0.00032   0.00054  -0.00226  -0.00171   1.88137
    D1       -2.10100  -0.00003  -0.00017   0.00052   0.00035  -2.10066
    D2        1.04059  -0.00003  -0.00011   0.00051   0.00040   1.04099
    D3        2.09965   0.00003   0.00023   0.00002   0.00025   2.09990
    D4       -1.04194   0.00004   0.00029   0.00001   0.00030  -1.04164
    D5       -0.00064  -0.00000   0.00004   0.00025   0.00029  -0.00035
    D6        3.14096   0.00000   0.00009   0.00024   0.00034   3.14130
    D7       -3.14145  -0.00000   0.00004  -0.00011  -0.00008  -3.14153
    D8        0.00015  -0.00000   0.00005  -0.00011  -0.00007   0.00008
    D9        0.00013  -0.00001  -0.00003  -0.00011  -0.00013   0.00000
   D10       -3.14145  -0.00001  -0.00002  -0.00011  -0.00012  -3.14157
   D11        3.14151  -0.00001  -0.00006  -0.00000  -0.00006   3.14145
   D12       -0.00007  -0.00000  -0.00000  -0.00001  -0.00001  -0.00008
   D13        0.00004  -0.00000  -0.00001  -0.00015  -0.00016  -0.00012
   D14        3.14145  -0.00000  -0.00000   0.00006   0.00006   3.14151
   D15       -3.14156  -0.00000  -0.00002  -0.00015  -0.00017   3.14145
   D16       -0.00015  -0.00000  -0.00001   0.00006   0.00005  -0.00010
   D17       -1.03215   0.00004   0.00001   0.00042   0.00043  -1.03172
   D18        1.03034  -0.00005   0.00009  -0.00023  -0.00014   1.03020
   D19        3.14072  -0.00000   0.00005   0.00009   0.00014   3.14087
   D20        2.10927   0.00005   0.00002   0.00062   0.00064   2.10991
   D21       -2.11142  -0.00004   0.00010  -0.00003   0.00007  -2.11135
   D22       -0.00104   0.00000   0.00006   0.00029   0.00035  -0.00069
         Item               Value     Threshold  Converged?
 Maximum Force            0.001523     0.000015     NO 
 RMS     Force            0.000403     0.000010     NO 
 Maximum Displacement     0.012593     0.000060     NO 
 RMS     Displacement     0.003971     0.000040     NO 
 Predicted change in Energy=-8.505665D-06
 GradGradGradGradGradGradGradGradGradGradGradGradGradGradGradGradGradGrad

                          Input orientation:                          
 ---------------------------------------------------------------------
 Center     Atomic      Atomic             Coordinates (Angstroms)
 Number     Number       Type             X           Y           Z
 ---------------------------------------------------------------------
      1          6           0        2.501609    0.283646    0.000127
      2          9           0        3.201474   -0.051199   -1.072399
      3          9           0        3.200746   -0.050252    1.073454
      4          9           0        2.338400    1.595905   -0.000506
      5          6           0        1.168140   -0.441407    0.000058
      6          6           0       -0.014265    0.210649   -0.000186
      7          6           0       -1.226221   -0.559010   -0.000154
      8          8           0       -1.278775   -1.774807   -0.000040
      9          6           0       -2.536216    0.255327   -0.000331
     10          9           0       -2.576661    1.037758    1.074609
     11          9           0       -2.575806    1.038908   -1.074450
     12          9           0       -3.593781   -0.518366   -0.001173
     13          1           0       -0.044941    1.288401   -0.000421
     14          8           0        1.327280   -1.737257    0.000328
     15          1           0        0.431035   -2.151300    0.000400
 ---------------------------------------------------------------------
                    Distance matrix (angstroms):
                    1          2          3          4          5
     1  C    0.000000
     2  F    1.323724   0.000000
[...]
 ! D16   D(13,6,7,9)            -0.0004         -DE/DX =    0.0                 !
 ! D17   D(6,7,9,10)           -59.066          -DE/DX =    0.0                 !
 ! D18   D(6,7,9,11)            59.0583         -DE/DX =    0.0                 !
 ! D19   D(6,7,9,12)           179.9962         -DE/DX =    0.0                 !
 ! D20   D(8,7,9,10)           120.9336         -DE/DX =    0.0                 !
 ! D21   D(8,7,9,11)          -120.942          -DE/DX =    0.0                 !
 ! D22   D(8,7,9,12)            -0.0041         -DE/DX =    0.0                 !
 --------------------------------------------------------------------------------
 GradGradGradGradGradGradGradGradGradGradGradGradGradGradGradGradGradGrad


 ----------------------------------------------------------------------

 Electric dipole moment (input orientation):
 (Debye = 10**-18 statcoulomb cm , SI units = C m)
                  (au)            (Debye)         (10**-30 SI)
   Tot        0.237568D+00      0.603837D+00      0.201418D+01
   x          0.111675D+00      0.283849D+00      0.946818D+00
   y          0.209683D+00      0.532962D+00      0.177777D+01
   z         -0.268542D-04     -0.682565D-04     -0.227679D-03

 Dipole polarizability, Alpha (input orientation).
 (esu units = cm**3 , SI units = C**2 m**2 J**-1)
 Alpha(0;0):
               (au)            (10**-24 esu)      (10**-40 SI)
   iso        0.746485D+02      0.110618D+02      0.123079D+02
   aniso      0.388166D+02      0.575203D+01      0.639999D+01
   xx         0.984578D+02      0.145899D+02      0.162335D+02
   yx        -0.133779D+01     -0.198240D+00     -0.220571D+00
   yy         0.714209D+02      0.105835D+02      0.117757D+02
   zx         0.576678D-02      0.854549D-03      0.950814D-03
   zy        -0.194243D-02     -0.287839D-03     -0.320264D-03
   zz         0.540668D+02      0.801188D+01      0.891442D+01

 ----------------------------------------------------------------------

 Dipole orientation:
     6          3.45945026         -1.84328794          2.69444115
     9          5.70476919         -0.74295576          2.75753655
     9          3.79870332         -4.32061261          2.75717805
     9          2.19181827         -1.16813714          4.73928201
     6          2.06473156         -1.09998162          0.30201438
     6         -0.18690798          0.09969297          0.34013457
     6         -1.36628089          0.72827864         -2.02039873
     8         -0.48928917          0.26120064         -4.09408082
     6         -3.93258348          2.09555008         -1.82775218
     9         -5.56064776          0.66178148         -0.55784674
     9         -3.65100336          4.24608294         -0.55698715
     9         -4.88200658          2.60192289         -4.05758594
     1         -1.07721239          0.57389997          2.11034010
     8          3.31449827         -1.76567642         -1.71839502
     1          2.32006362         -1.23570923         -3.20547130

 Electric dipole moment (dipole orientation):
 (Debye = 10**-18 statcoulomb cm , SI units = C m)
                  (au)            (Debye)         (10**-30 SI)
   Tot        0.237568D+00      0.603837D+00      0.201418D+01
   x          0.000000D+00      0.000000D+00      0.000000D+00
   y          0.000000D+00      0.000000D+00      0.000000D+00
   z          0.237568D+00      0.603837D+00      0.201418D+01

 Dipole polarizability, Alpha (dipole orientation).
 (esu units = cm**3 , SI units = C**2 m**2 J**-1)
 Alpha(0;0):
               (au)            (10**-24 esu)      (10**-40 SI)
   iso        0.746485D+02      0.110618D+02      0.123079D+02
   aniso      0.388166D+02      0.575203D+01      0.639999D+01
   xx         0.848533D+02      0.125740D+02      0.139904D+02
   yx        -0.164037D+02     -0.243078D+01     -0.270460D+01
   yy         0.628071D+02      0.930705D+01      0.103555D+02
   zx         0.924040D+01      0.136929D+01      0.152354D+01
   zy        -0.492529D+01     -0.729853D+00     -0.812071D+00
   zz         0.762852D+02      0.113043D+02      0.125777D+02

 ----------------------------------------------------------------------
 1\1\GINC-ARTEMIY-VIRTUALBOX\Freq\RM06\6-311++G(3df,3pd)\C5H2F6O2\ARTEM
 IY\24-Nov-2021\0\\#N Geom=AllCheck Guess=TCheck SCRF=Check GenChk RM06
 /6-311++G(3df,3pd) Freq\\Title Card Required\\0,1\C,2.5010952372,0.283
 396116,0.0002254306\F,3.2007686493,-0.0515498421,-1.0722362618\F,3.200
 5253731,-0.0513604852,1.0729045208\F,2.3389486204,1.5957347745,0.00009
 10835\C,1.1678087125,-0.4408881006,0.0001366515\C,-0.0143303546,0.2115
 593531,-0.0000895202\C,-1.2257205656,-0.5585236414,-0.0001661182\O,-1.
 2774711997,-1.7742349981,-0.0000406233\C,-2.5359356589,0.254781564,-0.
 0004067739\F,-2.5763527877,1.0378148276,1.0741677125\F,-2.5759687152,1
 .0378504051,-1.074966744\F,-3.5931858366,-0.5190337838,-0.0006105537\H
 ,-0.045123823,1.2892837371,-0.0002149926\O,1.3265917553,-1.736787509,0
 .0002970121\H,0.4303689438,-2.1510448384,0.0002254573\\Version=ES64L-G
 16RevA.03\HF=-941.1958423\RMSD=5.900e-09\RMSF=1.219e-06\ZeroPoint=0.07
 84524\Thermal=0.0899063\Dipole=0.1116748,0.2096835,-0.0000269\DipoleDe
 riv=2.0157378,-0.1026232,0.0000562,0.1793919,1.5261572,0.0000387,0.000
 0317,0.0000037,1.6754414,-0.731908,0.0577395,0.3234158,0.0065836,-0.30
 40483,-0.1042239,0.3394778,-0.1269037,-0.6893321,-0.731751,0.0576527,-
 0.3234403,0.0065024,-0.3040058,0.1041565,-0.3394926,0.1268468,-0.68952
 71,-0.421045,-0.0358135,-0.0000158,-0.0625763,-0.8933277,0.0000454,-0.
 000012,0.0000505,-0.2678991,0.8667733,-0.145132,0.0001157,-1.0988611,0
 .9524183,-0.000236,0.0002173,-0.0001157,0.075215,-1.5502851,0.0222941,
 -0.0001734,-0.0237432,-0.2275538,0.000003,-0.0001779,0.0000073,-0.1850
 8,1.3997026,0.0876922,0.0001378,0.7288152,0.9564709,0.0000178,0.000055
 1,-0.0000607,0.1779753,-0.7134452,0.0222983,-0.0000553,-0.5273341,-1.0
 012454,0.0000027,0.0000077,0.0000825,-0.2930634,1.7553294,0.1413207,0.
 0000194,0.0657309,1.4434098,0.0000233,0.0000274,0.0000216,1.6494152,-0
 .4629314,0.1082856,0.0714286,0.1326634,-0.5257522,-0.3360835,0.0580475
 ,-0.2880347,-0.6908646,-0.4628753,0.1081761,-0.0713368,0.1325351,-0.52
 57656,0.3361307,-0.0579504,0.2880742,-0.6908855,-0.9314561,-0.2901195,
 -0.0001243,-0.2466301,-0.4507409,-0.0000546,-0.0001231,-0.0000606,-0.2
 673949,0.1099297,0.0007289,-0.0000079,0.0044605,0.0518431,0.0000108,-0
 .0000103,0.0000138,0.1586682,-0.5554945,-0.0543297,-0.0000338,0.698366
 7,-1.0787929,0.0001788,-0.0001146,0.0000821,-0.2504922,0.4137188,0.021
 8297,0.0000141,0.0040952,0.3809331,-0.0000099,0.0000165,-0.0000072,0.2
 878238\Polar=98.4578237,-1.3377873,71.4209248,0.0057668,-0.0019424,54.
 066837\Quadrupole=-3.8919124,1.488753,2.4031594,-0.5900291,-0.0006688,
 -0.0000159\PG=C01 [X(C5H2F6O2)]\NImag=0\\0.60186026,0.02856070,0.58691
 205,0.00000886,-0.00000410,0.51789981,-0.16566983,0.01598912,0.1051070
 5,0.17255938,0.02165697,-0.08433165,-0.03103073,-0.05099392,0.10492527
 ,0.10437511,-0.02579180,-0.19853906,-0.15140135,0.07243004,0.31204201,
 -0.16562395,0.01596473,-0.10510308,0.02549614,-0.00217183,0.00741722,0
 .17249257,0.02163227,-0.08432252,0.03101595,-0.00217265,0.01420626,-0.
 00212352,-0.05095118,0.10490138,-0.10437270,0.02577543,-0.19859896,-0.
 00739085,0.00210417,-0.09225061,0.15138008,-0.07240503,0.31213878,-0.0
 8501599,0.00047400,-0.00000165,-0.00085484,0.04106514,0.01826918,-0.00
 084732,0.04105070,-0.01827436,0.08951168,-0.01182347,-0.29421842,0.000
 01823,0.03035921,-0.04352969,-0.03906370,0.03034750,-0.04351463,0.0390
 7631,-0.04572450,0.42918099,-0.00000031,0.00001974,-0.07322408,0.01668
 687,-0.04982226,-0.00892767,-0.01669041,0.04983745,-0.00895126,0.00000
 486,-0.00003559,0.08316115,-0.18319610,-0.05564423,-0.00000896,-0.0264
 7063,-0.00569808,0.01868413,-0.02645683,-0.00570020,-0.01868573,0.0080
 2209,0.01235126,-0.00000103,0.76693739,-0.05675193,-0.08277938,-0.0000
 0455,0.01188654,0.00524355,-0.01012347,0.01187711,0.00524434,0.0101226
 2,-0.02580022,-0.04527707,0.00000176,-0.08676605,0.73436996,-0.0000093
 2,-0.00000479,-0.06167047,0.04126139,0.00490033,-0.01533014,-0.0412660
 1,-0.00490498,-0.01534502,0.00000247,0.00000622,0.00734045,0.00008226,
 -0.00006958,0.19870588,-0.00273561,0.01797650,-0.00000382,-0.00700706,
 -0.00164548,0.00424993,-0.00700658,-0.00164624,-0.00425150,-0.00564915
 ,-0.00386479,-0.00000025,-0.37188090,0.09417620,-0.00005004,0.69164022
 ,-0.00457339,0.01527296,-0.00000098,-0.00534426,-0.00113241,0.00389024
 ,-0.00534304,-0.00113311,-0.00389123,-0.00067275,-0.00070122,-0.000000
 04,0.13840629,-0.18988758,0.00003164,-0.07750794,0.75204965,-0.0000009
 3,0.00000170,0.01028319,-0.00199665,-0.00000490,0.00076018,0.00199566,
 0.00000481,0.00076024,-0.00000070,-0.00000029,-0.00022931,-0.00005531,
 0.00002599,-0.06137613,0.00008612,-0.00008266,0.09739797,-0.01396485,-
 0.00035525,-0.00000314,0.00304088,-0.00020749,-0.00092112,0.00303968,-
 0.00020748,0.00092172,0.00293241,0.00217276,0.00000013,-0.05574894,0.0
 2003210,-0.00000978,-0.21942265,-0.07267452,-0.00001133,0.57203754,-0.
 00875575,-0.00750740,0.00000063,0.00473050,0.00044549,-0.00272674,0.00
 473048,0.00044606,0.00272796,0.00048121,0.00181963,-0.00000012,-0.0158
 9025,0.06709580,-0.00000886,-0.01831276,-0.14314554,0.00000564,0.03490
 168,0.92567134,-0.00000186,0.00000186,0.00942442,-0.00291932,-0.000414
 07,0.00061743,0.00291882,0.00041393,0.00061758,0.00000028,0.00000010,0
 .00014355,-0.00000565,-0.00000452,0.00348886,-0.00001798,-0.00000188,-
 0.07258708,0.00004041,-0.00006980,0.22046457,0.00338263,0.00060354,0.0
 0000046,-0.00077520,-0.00027807,0.00023752,-0.00077506,-0.00027812,-0.
 00023764,-0.00119525,-0.00143840,0.,-0.00204660,0.01454535,-0.00000159
 ,0.01645920,-0.04339205,0.00000450,-0.11795000,-0.03351321,-0.00000292
 ,0.12483294,0.00927331,0.00116710,0.00000100,-0.00312599,0.00032826,0.
 00169417,-0.00312556,0.00032798,-0.00169500,-0.00164911,0.00026132,-0.
 00000024,0.02762413,-0.04512441,0.00000811,-0.06793364,-0.04993161,-0.
 00000148,-0.00013595,-0.68378380,0.00006645,0.04191514,0.79100329,-0.0
 0000051,-0.00000015,-0.00081413,0.00016052,0.00005577,0.00006368,-0.00
 016003,-0.00005589,0.00006398,0.00000007,-0.00000022,-0.00021501,-0.00
 000315,0.00000679,-0.00206653,0.00000736,0.00000178,0.01921271,-0.0000
 0688,0.00006238,-0.06670635,0.00000789,-0.00007682,0.03356655,-0.00650
 470,-0.00189290,-0.00000064,0.00208673,0.00019902,-0.00100067,0.002086
 66,0.00019917,0.00100133,0.00138443,0.00118714,0.00000009,-0.00819948,
 0.00646652,-0.00000208,-0.00945573,0.00960455,-0.00000282,-0.17357228,
 0.03440745,-0.00001663,0.01178909,0.00471643,-0.00000163,0.62473332,0.
 00156426,0.00448297,-0.00000047,-0.00118678,-0.00062870,0.00063704,-0.
 00118686,-0.00062882,-0.00063733,-0.00023242,-0.00183960,0.00000014,-0
 .00380440,-0.00635239,0.00000063,-0.01947153,0.01482949,-0.00000259,0.
 04490110,-0.07312121,0.00000685,0.02260181,-0.04395361,0.00000798,0.00
 282572,0.57185445,-0.00000095,-0.00000090,-0.00071011,0.00089415,-0.00
 005100,-0.00075704,-0.00089320,0.00005109,-0.00075691,0.00000019,0.000
 00037,-0.00022066,-0.00000143,0.00000215,0.00246741,-0.00000077,0.0000
 0049,0.01142834,-0.00001798,0.00000401,-0.06653125,-0.00000417,0.00000
 822,0.01491794,0.00002220,-0.00000756,0.49097515,0.00204551,0.00077503
 ,0.00054705,-0.00080491,-0.00009411,0.00034286,-0.00052245,-0.00007432
 ,-0.00028205,-0.00041412,-0.00048545,-0.00000706,0.00255826,-0.0023721
 7,0.00019690,-0.00506474,-0.00060466,-0.00099954,0.00987330,0.01764927
 ,0.02336120,-0.00517246,0.00538006,-0.00221019,-0.08903829,0.02319733,
 0.02894701,0.07536367,-0.00124839,-0.00157069,-0.00105390,0.00067152,0
 .00025962,-0.00014362,0.00037146,0.00019250,0.00030662,0.00021831,0.00
 086846,0.00012216,-0.00070179,0.00218469,0.00105280,0.00520627,-0.0013
 1456,0.00378957,-0.00580905,-0.01370982,-0.03240116,0.00684375,-0.0049
 2808,0.00335452,0.03047397,-0.16054093,-0.10396555,-0.00011048,0.19271
 576,-0.00077951,-0.00085428,-0.00103635,0.00033354,0.00017217,0.000071
 09,0.00035217,0.00008083,0.00040944,0.00017619,0.00047493,0.00017273,-
 0.00027912,0.00080403,0.00057586,0.00283828,0.00009243,0.00247037,-0.0
 0646550,-0.01394785,-0.01513350,0.00682176,-0.00591494,0.00133401,0.03
 056809,-0.10107920,-0.19051389,-0.01022669,0.16107067,0.30131658,0.002
 04533,0.00077450,-0.00054619,-0.00052242,-0.00007423,0.00028180,-0.000
 80464,-0.00009409,-0.00034303,-0.00041410,-0.00048524,0.00000698,0.002
 55805,-0.00237120,-0.00019623,-0.00506345,-0.00060516,0.00099679,0.009
 88017,0.01764396,-0.02335130,-0.00517179,0.00537955,0.00220676,-0.0890
 1819,0.02315967,-0.02890744,0.01491908,-0.00439190,0.00258528,0.075360
 05,-0.00124860,-0.00157062,0.00105379,0.00037149,0.00019248,-0.0003064
 9,0.00067144,0.00025967,0.00014370,0.00021831,0.00086857,-0.00012225,-
 0.00070170,0.00218455,-0.00105322,0.00520724,-0.00131546,-0.00378750,-
 0.00582458,-0.01370971,0.03239798,0.00684701,-0.00492999,-0.00335084,0
 .03043956,-0.16054920,0.10397971,-0.00438965,0.02652326,-0.00668017,-0
 .00005344,0.19272939,0.00078022,0.00085452,-0.00103634,-0.00035238,-0.
 00008082,0.00040939,-0.00033371,-0.00017222,0.00007099,-0.00017631,-0.
 00047519,0.00017278,0.00027971,-0.00080438,0.00057604,-0.00284036,-0.0
 0009204,0.00246951,0.00647690,0.01395368,-0.01513714,-0.00682489,0.005
 91661,0.00133086,-0.03053232,0.10109112,-0.19053079,-0.00254795,0.0066
 8247,-0.09029388,0.01014590,-0.16107719,0.30131604,0.00297227,0.001692
 95,0.00000008,-0.00136874,-0.00013221,0.00079985,-0.00136860,-0.000132
 36,-0.00080015,-0.00059086,-0.00047714,-0.00000002,-0.00025355,-0.0065
 9254,0.00000089,-0.00906828,0.00871081,-0.00000195,-0.04190917,-0.0385
 0913,-0.00000881,0.00569518,0.00261266,0.00000131,-0.26835606,-0.09124
 641,-0.00003757,-0.00278164,-0.03181753,-0.02587894,-0.00280345,-0.031
 83118,0.02588065,0.31962777,0.00033444,-0.00051963,0.00000007,-0.00011
 073,0.00010420,0.00008533,-0.00011069,0.00010418,-0.00008535,-0.000082
 11,0.00030087,-0.00000003,0.00076459,-0.00088959,0.00000015,0.00005722
 ,0.00014076,-0.00000005,0.00275299,-0.00377850,0.00000114,0.00662609,0
 .00653856,0.00000107,-0.11178637,-0.14100565,-0.00002102,-0.04167004,-
 0.04105474,-0.03436756,-0.04168309,-0.04105799,0.03435238,0.18491612,0
 .21943962,0.00000056,0.00000035,-0.00011194,-0.00005545,0.00001297,0.0
 0008629,0.00005493,-0.00001301,0.00008602,-0.00000011,-0.00000010,0.00
 004188,-0.00000006,-0.00000129,-0.00015596,-0.00000172,0.00000175,0.00
 008084,-0.00000953,-0.00000619,0.00882621,0.00000090,-0.00000006,-0.00
 086932,-0.00003534,-0.00001691,-0.07388205,-0.03629707,-0.03832998,-0.
 00823424,0.03629796,0.03831802,-0.00820904,0.00004489,0.00003405,0.082
 77946,-0.00010701,0.00341183,0.00000008,0.00030123,-0.00052085,-0.0004
 6647,0.00030156,-0.00052075,0.00046679,-0.00165626,-0.00229295,0.,0.00
 606436,0.02733079,-0.00000212,-0.05401524,0.00772053,-0.00000544,0.009
 61053,-0.02361474,0.00000441,-0.00610791,-0.00471397,-0.00000093,-0.00
 029817,-0.00214843,0.00000010,-0.00044614,0.00088312,0.00056899,-0.000
 44929,0.00088351,-0.00057022,0.00074896,0.00056945,0.00000012,0.053093
 49,0.00035687,-0.00104192,-0.00000027,-0.00002488,0.00004384,0.0000829
 3,-0.00002519,0.00004381,-0.00008306,-0.00266579,0.00026475,-0.0000004
 3,-0.00139261,-0.01024094,0.00000076,0.00965417,-0.35078142,0.00003792
 ,0.00433799,-0.00930609,0.00000118,-0.00210636,-0.00002987,0.00000029,
 -0.00103079,-0.00128394,0.00000038,0.00094554,0.00043571,-0.00005769,0
 .00094703,0.00043609,0.00005769,0.00024164,0.00032687,-0.00000001,-0.0
 0959426,0.36857118,0.00000045,0.00000026,-0.00342365,0.00136498,0.0000
 8591,-0.00052948,-0.00136470,-0.00008616,-0.00052960,-0.00000003,-0.00
 000040,-0.00046986,0.00000119,0.00000423,-0.00177993,-0.00000533,0.000
 03824,-0.02512522,0.00000124,-0.00000246,-0.00312419,-0.00000124,-0.00
 000017,0.00477974,-0.00000028,-0.00000019,0.00179737,-0.00018678,-0.00
 072463,-0.00104049,0.00018554,0.00072468,-0.00104099,0.00000008,0.0000
 0004,-0.00030095,0.00000706,-0.00004052,0.02170562,0.00779642,-0.03035
 235,0.00000435,0.00042806,-0.00148229,-0.00107502,0.00042780,-0.001482
 24,0.00107541,-0.00604310,-0.01246719,0.00000024,-0.13172050,0.0272487
 5,-0.00001252,0.01304998,0.04283355,-0.00000508,-0.00521709,-0.0171973
 6,0.00000184,-0.03088482,0.01660690,-0.00000649,0.00299473,-0.00033415
 ,0.00000031,-0.00102699,0.00123859,0.00102732,-0.00102685,0.00123867,-
 0.00102774,-0.00003585,0.00050915,-0.00000001,-0.00531542,0.00083941,-
 0.00000207,0.50231228,-0.00191613,-0.04488466,0.00000393,-0.00144414,0
 .00305955,0.00155230,-0.00144356,0.00305898,-0.00155251,-0.00572419,-0
 .00326697,-0.00000028,0.03942755,-0.39621681,0.00004168,0.06068009,-0.
 04431522,0.00001466,-0.03449014,-0.04522240,0.00000010,-0.01256798,0.0
 4123552,-0.00000574,-0.00676292,-0.00051042,-0.00000086,0.00212360,-0.
 00013929,0.00022205,0.00212351,-0.00013897,-0.00022207,0.00344110,0.00
 139583,0.00000060,0.00341858,0.00226457,0.00000141,0.08585022,0.584055
 65,0.00000149,0.00000081,-0.00310462,-0.00063362,0.00131194,0.00207422
 ,0.00063371,-0.00131265,0.00207544,-0.00000033,-0.00000116,0.00129967,
 -0.00001369,0.00003987,-0.05796055,-0.00000734,0.00001234,0.01732665,0
 .00000377,0.00000207,-0.00548791,-0.00000335,-0.00000174,0.00499262,0.
 00000120,-0.00000006,-0.00023748,-0.00035092,-0.00016487,-0.00002769,0
 .00035028,0.00016516,-0.00002787,-0.00000040,-0.00000007,0.00002520,-0
 .00000237,0.00000103,0.01003620,0.00004891,-0.00004613,0.05185835,0.00
 271563,0.00202184,-0.00000044,-0.00043878,0.00037743,0.00020704,-0.000
 43897,0.00037749,-0.00020732,0.00083037,0.00264125,-0.00000011,0.01983
 339,-0.03290926,0.00000576,-0.02478000,0.00344202,-0.00000331,0.017370
 49,0.04124864,-0.00000249,0.00792004,-0.03282395,0.00000590,-0.0006320
 8,0.00136109,-0.00000045,0.00051194,-0.00182785,-0.00164186,0.00051149
 ,-0.00182808,0.00164249,-0.00050798,-0.00108701,-0.00000006,-0.0017246
 7,-0.00048277,-0.00000011,-0.34573865,-0.13271559,-0.00002734,0.324567
 77,0.00293884,-0.00508819,0.00000140,0.00039496,0.00081393,-0.00009271
 ,0.00039519,0.00081392,0.00009271,-0.00095658,-0.00121701,-0.00000002,
 -0.04227452,-0.03955470,-0.00000090,-0.00257531,0.00136528,-0.00000082
 ,0.01060584,-0.00219386,0.00000184,-0.00640850,-0.00818068,-0.00000091
 ,0.00095344,-0.00075243,0.00000047,-0.00026997,0.00007810,-0.00001543,
 -0.00026987,0.00007792,0.00001544,-0.00087677,-0.00004480,-0.00000019,
 -0.00081185,0.00029736,-0.00000025,-0.11304965,-0.10037536,-0.00000657
 ,0.15220473,0.15396051,-0.00000058,0.00000135,0.00466228,-0.00105886,0
 .00033049,0.00020971,0.00105854,-0.00033059,0.00020990,0.00000025,0.00
 000049,-0.00009436,0.00000684,0.00000035,0.00253023,-0.00000257,-0.000
 00009,-0.00287227,0.00000108,0.00000564,0.00112480,0.00000276,-0.00000
 411,-0.00959074,-0.00000051,0.00000054,0.00255395,-0.00028679,0.000404
 89,-0.00007005,0.00028690,-0.00040538,-0.00006956,0.00000010,-0.000000
 15,-0.00016241,-0.00000002,-0.00000020,-0.00095457,-0.00002946,-0.0000
 0916,-0.02284225,0.00002231,0.00000595,0.02536533\\0.00000085,-0.00000
 198,-0.00000027,-0.00000010,-0.00000253,-0.00000012,0.,-0.00000262,0.0
 0000033,0.00000104,-0.00000140,0.,-0.00000009,-0.00000151,0.00000007,0
 .00000085,0.00000052,-0.00000005,-0.00000106,0.00000093,0.00000042,-0.
 00000110,0.00000081,0.,-0.00000122,0.00000016,-0.00000076,0.00000122,0
 .00000249,0.00000084,0.00000081,0.00000245,-0.00000034,0.00000101,0.00
 000368,-0.00000002,0.00000094,0.00000005,-0.00000009,-0.00000146,-0.00
 000032,-0.00000005,-0.00000169,-0.00000072,0.00000004\\\@


 ERROR IS A HARDY PLANT... IT FLOURISHETH IN EVERY SOIL.
            MARTIN FARQUHAR TUPPER
 Job cpu time:       0 days  9 hours 41 minutes 21.9 seconds.
 Elapsed time:       0 days  0 hours 52 minutes 51.7 seconds.
 File lengths (MBytes):  RWF=    358 Int=      0 D2E=      0 Chk=     24 Scr=      1
 Normal termination of Gaussian 16 at Wed Nov 24 12:55:25 2021.
