 Entering Gaussian System, Link 0=/home/artemiy/opt/gaussian/g16/g16
 Input=1,1,1-Ethanetricarbonitrile_G3MP2.gjf
 Output=1,1,1-Ethanetricarbonitrile_G3MP2.log
 Initial command:
 /home/artemiy/opt/gaussian/g16/l1.exe "/home/artemiy/opt/gaussian/scr/Gau-75128.inp" -scrdir="/home/artemiy/opt/gaussian/scr/"
 Entering Link 1 = /home/artemiy/opt/gaussian/g16/l1.exe PID=     75132.
  
 Copyright (c) 1988,1990,1992,1993,1995,1998,2003,2009,2016,
            Gaussian, Inc.  All Rights Reserved.
  
 This is part of the Gaussian(R) 16 program.  It is based on
 the Gaussian(R) 09 system (copyright 2009, Gaussian, Inc.),
 the Gaussian(R) 03 system (copyright 2003, Gaussian, Inc.),
 the Gaussian(R) 98 system (copyright 1998, Gaussian, Inc.),
 the Gaussian(R) 94 system (copyright 1995, Gaussian, Inc.),
 the Gaussian 92(TM) system (copyright 1992, Gaussian, Inc.),
 the Gaussian 90(TM) system (copyright 1990, Gaussian, Inc.),
 the Gaussian 88(TM) system (copyright 1988, Gaussian, Inc.),
 the Gaussian 86(TM) system (copyright 1986, Carnegie Mellon
 University), and the Gaussian 82(TM) system (copyright 1983,
 Carnegie Mellon University). Gaussian is a federally registered
 trademark of Gaussian, Inc.
  
 This software contains proprietary and confidential information,
 including trade secrets, belonging to Gaussian, Inc.
  
 This software is provided under written license and may be
 used, copied, transmitted, or stored only in accord with that
 written license.
  
 The following legend is applicable only to US Government
 contracts under FAR:
  
                    RESTRICTED RIGHTS LEGEND
  
 Use, reproduction and disclosure by the US Government is
 subject to restrictions as set forth in subparagraphs (a)
 and (c) of the Commercial Computer Software - Restricted
 Rights clause in FAR 52.227-19.
  
 Gaussian, Inc.
 340 Quinnipiac St., Bldg. 40, Wallingford CT 06492
  
  
 ---------------------------------------------------------------
 Warning -- This program may not be used in any manner that
 competes with the business of Gaussian, Inc. or will provide
 assistance to any competitor of Gaussian, Inc.  The licensee
 of this program is prohibited from giving any competitor of
 Gaussian, Inc. access to this program.  By using this program,
 the user acknowledges that Gaussian, Inc. is engaged in the
 business of creating and licensing software in the field of
 computational chemistry and represents and warrants to the
 licensee that it is not a competitor of Gaussian, Inc. and that
 it will not use this program in any manner prohibited above.
 ---------------------------------------------------------------
  

 Cite this work as:
 Gaussian 16, Revision A.03,
 M. J. Frisch, G. W. Trucks, H. B. Schlegel, G. E. Scuseria, 
 M. A. Robb, J. R. Cheeseman, G. Scalmani, V. Barone, 
 G. A. Petersson, H. Nakatsuji, X. Li, M. Caricato, A. V. Marenich, 
 J. Bloino, B. G. Janesko, R. Gomperts, B. Mennucci, H. P. Hratchian, 
 J. V. Ortiz, A. F. Izmaylov, J. L. Sonnenberg, D. Williams-Young, 
 F. Ding, F. Lipparini, F. Egidi, J. Goings, B. Peng, A. Petrone, 
 T. Henderson, D. Ranasinghe, V. G. Zakrzewski, J. Gao, N. Rega, 
 G. Zheng, W. Liang, M. Hada, M. Ehara, K. Toyota, R. Fukuda, 
 J. Hasegawa, M. Ishida, T. Nakajima, Y. Honda, O. Kitao, H. Nakai, 
 T. Vreven, K. Throssell, J. A. Montgomery, Jr., J. E. Peralta, 
 F. Ogliaro, M. J. Bearpark, J. J. Heyd, E. N. Brothers, K. N. Kudin, 
 V. N. Staroverov, T. A. Keith, R. Kobayashi, J. Normand, 
 K. Raghavachari, A. P. Rendell, J. C. Burant, S. S. Iyengar, 
 J. Tomasi, M. Cossi, J. M. Millam, M. Klene, C. Adamo, R. Cammi, 
 J. W. Ochterski, R. L. Martin, K. Morokuma, O. Farkas, 
 J. B. Foresman, and D. J. Fox, Gaussian, Inc., Wallingford CT, 2016.
 
 ******************************************
 Gaussian 16:  ES64L-G16RevA.03 25-Dec-2016
                16-Jun-2022 
 ******************************************
 %mem=7GB
 %nprocshared=4
 Will use up to    4 processors via shared memory.
 ----------------
 # g3mp2 geom=gic
 ----------------
 1/18=20,19=15,38=1,145=2/1,3;
 2/9=110,12=2,17=6,18=5,40=1/2;
 3/5=33,7=1,11=9,25=1,30=1,71=1/1,2,3;
 4//1;
 5/5=2,38=5/2;
 6/7=2,8=2,9=2,10=2,28=1/1;
 7//1,2,3,16;
 1/18=20,19=15,145=2/3(2);
 2/9=110/2;
 99//99;
 2/9=110/2;
 3/5=33,7=1,11=9,25=1,30=1,71=1/1,2,3;
 4/5=5,16=3,69=1/1;
 5/5=2,38=5/2;
 7//1,2,3,16;
 1/18=20,19=15,145=2/3(-5);
 2/9=110/2;
 6/7=2,8=2,9=2,10=2,19=2,28=1/1;
 99/9=1/99;
 -------------------
 CAS 10359-20-3
 -------------------
 Symbolic Z-matrix:
 Charge =  0 Multiplicity = 1
 C                     0.00004   0.00009   0.29949 
 C                    -0.00012   0.00056   1.84157 
 H                    -0.94021  -0.40546   2.21087 
 H                     0.82164  -0.61033   2.2111 
 H                     0.11814   1.01787   2.2105 
 C                     1.25428   0.54259  -0.21077 
 C                    -0.1571   -1.35753  -0.21038 
 C                    -1.09697   0.81484  -0.21099 
 N                     2.24083   0.96917  -0.59049 
 N                    -0.28082  -2.42524  -0.59013 
 N                    -1.96009   1.45544  -0.59057 
 
 Initializing the GIC definitions file.

 GradGradGradGradGradGradGradGradGradGradGradGradGradGradGradGradGradGrad
 Berny optimization.
 Initialization pass.
                           ----------------------------
                           !    Initial Parameters    !
                           ! (Angstroms and Degrees)  !
 --------------------------                            --------------------------
 ! Name  Definition              Value          Derivative Info.                !
 --------------------------------------------------------------------------------
 ! R1    R(1,2)                  1.5421         estimate D2E/DX2                !
 ! R2    R(1,6)                  1.4587         estimate D2E/DX2                !
 ! R3    R(1,7)                  1.4587         estimate D2E/DX2                !
 ! R4    R(1,8)                  1.4587         estimate D2E/DX2                !
 ! R5    R(2,3)                  1.0886         estimate D2E/DX2                !
 ! R6    R(2,4)                  1.0886         estimate D2E/DX2                !
 ! R7    R(2,5)                  1.0886         estimate D2E/DX2                !
 ! R8    R(6,9)                  1.1399         estimate D2E/DX2                !
 ! R9    R(7,10)                 1.14           estimate D2E/DX2                !
 ! R10   R(8,11)                 1.1399         estimate D2E/DX2                !
 ! A1    A(2,1,6)              110.4736         estimate D2E/DX2                !
 ! A2    A(2,1,7)              110.476          estimate D2E/DX2                !
 ! A3    A(2,1,8)              110.4696         estimate D2E/DX2                !
 ! A4    A(6,1,7)              108.4508         estimate D2E/DX2                !
 ! A5    A(6,1,8)              108.451          estimate D2E/DX2                !
 ! A6    A(7,1,8)              108.4515         estimate D2E/DX2                !
 ! A7    A(1,2,3)              109.8296         estimate D2E/DX2                !
 ! A8    A(1,2,4)              109.829          estimate D2E/DX2                !
 ! A9    A(1,2,5)              109.8275         estimate D2E/DX2                !
 ! A10   A(3,2,4)              109.1131         estimate D2E/DX2                !
 ! A11   A(3,2,5)              109.1113         estimate D2E/DX2                !
 ! A12   A(4,2,5)              109.1098         estimate D2E/DX2                !
 ! A13   L(1,6,9,5,-1)         179.0734         estimate D2E/DX2                !
 ! A14   L(1,6,9,5,-2)         179.4736         estimate D2E/DX2                !
 ! A15   L(1,7,10,4,-1)        179.0891         estimate D2E/DX2                !
 ! A16   L(1,7,10,4,-2)        179.4814         estimate D2E/DX2                !
 ! A17   L(1,8,11,3,-1)        179.0482         estimate D2E/DX2                !
 ! A18   L(1,8,11,3,-2)        179.4926         estimate D2E/DX2                !
 ! D1    D(6,1,2,3)            179.9694         estimate D2E/DX2                !
 ! D2    D(6,1,2,4)            -60.0278         estimate D2E/DX2                !
 ! D3    D(6,1,2,5)             59.9697         estimate D2E/DX2                !
 ! D4    D(7,1,2,3)            -60.0287         estimate D2E/DX2                !
 ! D5    D(7,1,2,4)             59.9742         estimate D2E/DX2                !
 ! D6    D(7,1,2,5)            179.9716         estimate D2E/DX2                !
 ! D7    D(8,1,2,3)             59.9714         estimate D2E/DX2                !
 ! D8    D(8,1,2,4)            179.9743         estimate D2E/DX2                !
 ! D9    D(8,1,2,5)            -60.0282         estimate D2E/DX2                !
 --------------------------------------------------------------------------------
 Trust Radius=3.00D-01 FncErr=1.00D-07 GrdErr=1.00D-07 EigMax=2.50D+02 EigMin=1.00D-04
 Number of steps in this run=     47 maximum allowed number of steps=    100.
 GradGradGradGradGradGradGradGradGradGradGradGradGradGradGradGradGradGrad

                          Input orientation:                          
 ---------------------------------------------------------------------
 Center     Atomic      Atomic             Coordinates (Angstroms)
 Number     Number       Type             X           Y           Z
 ---------------------------------------------------------------------
      1          6           0        0.000036    0.000092    0.299491
      2          6           0       -0.000118    0.000565    1.841569
      3          1           0       -0.940214   -0.405464    2.210875
      4          1           0        0.821639   -0.610328    2.211102
      5          1           0        0.118140    1.017867    2.210503
      6          6           0        1.254281    0.542592   -0.210767
      7          6           0       -0.157099   -1.357533   -0.210384
      8          6           0       -1.096969    0.814835   -0.210992
      9          7           0        2.240835    0.969173   -0.590487
     10          7           0       -0.280824   -2.425239   -0.590129
     11          7           0       -1.960093    1.455444   -0.590571
 ---------------------------------------------------------------------
                    Distance matrix (angstroms):
                    1          2          3          4          5
     1  C    0.000000
     2  C    1.542077   0.000000
     3  H    2.168394   1.088589   0.000000
     4  H    2.168386   1.088590   1.773723   0.000000
     5  H    2.168359   1.088578   1.773693   1.773677   0.000000
     6  C    1.458698   2.465642   3.402788   2.716956   2.716478
     7  C    1.458701   2.465681   2.717020   2.716586   3.402789
     8  C    1.458705   2.465588   2.716458   3.402747   2.716864
     9  N    2.598530   3.446007   4.456044   3.515372   3.514790
    10  N    2.598564   3.446226   3.515666   3.515142   4.456197
    11  N    2.598532   3.445792   3.514433   4.455875   3.515187
                    6          7          8          9         10
     6  C    0.000000
     7  C    2.366953   0.000000
     8  C    2.366959   2.366968   0.000000
     9  N    1.139933   3.362755   3.362851   0.000000
    10  N    3.362809   1.139961   3.362724   4.228569   0.000000
    11  N    3.362998   3.362762   1.139932   4.228978   4.228433
                   11
    11  N    0.000000
 Stoichiometry    C5H3N3
 Framework group  C1[X(C5H3N3)]
 Deg. of freedom    27
 Full point group                 C1      NOp   1
 Largest Abelian subgroup         C1      NOp   1
 Largest concise Abelian subgroup C1      NOp   1
                         Standard orientation:                         
 ---------------------------------------------------------------------
 Center     Atomic      Atomic             Coordinates (Angstroms)
 Number     Number       Type             X           Y           Z
 ---------------------------------------------------------------------
      1          6           0       -0.000040   -0.000073    0.238608
      2          6           0        0.000114   -0.000546    1.780686
      3          1           0        0.940262    0.405363    2.149992
      4          1           0       -0.821565    0.610452    2.150220
      5          1           0       -0.118274   -1.017833    2.149620
      6          6           0       -1.254355   -0.542413   -0.271649
      7          6           0        0.157268    1.357532   -0.271267
      8          6           0        1.096861   -0.814956   -0.271875
      9          7           0       -2.240963   -0.968868   -0.651370
     10          7           0        0.281130    2.425222   -0.651012
     11          7           0        1.959903   -1.455676   -0.651454
 ---------------------------------------------------------------------
 Rotational constants (GHZ):           2.1674114           2.1670518           1.5753832
 Standard basis: GTBas1 (6D, 7F)
 There are   126 symmetry adapted cartesian basis functions of A   symmetry.
 There are   126 symmetry adapted basis functions of A   symmetry.
   126 basis functions,   236 primitive gaussians,   126 cartesian basis functions
    27 alpha electrons       27 beta electrons
       nuclear repulsion energy       293.0733916855 Hartrees.
 NAtoms=   11 NActive=   11 NUniq=   11 SFac= 1.00D+00 NAtFMM=   60 NAOKFM=F Big=F
 Integral buffers will be    131072 words long.
 Raffenetti 1 integral format.
 Two-electron integral symmetry is turned on.
 One-electron integrals computed using PRISM.
 NBasis=   126 RedAO= T EigKep=  6.38D-04  NBF=   126
 NBsUse=   126 1.00D-06 EigRej= -1.00D+00 NBFU=   126
 ExpMin= 1.61D-01 ExpMax= 4.17D+03 ExpMxC= 6.27D+02 IAcc=3 IRadAn=         5 AccDes= 0.00D+00
 Harris functional with IExCor=  205 and IRadAn=       5 diagonalized for initial guess.
 HarFok:  IExCor=  205 AccDes= 0.00D+00 IRadAn=         5 IDoV= 1 UseB2=F ITyADJ=14
 ICtDFT=  3500011 ScaDFX=  1.000000  1.000000  1.000000  1.000000
 FoFCou: FMM=F IPFlag=           0 FMFlag=      100000 FMFlg1=           0
         NFxFlg=           0 DoJE=T BraDBF=F KetDBF=T FulRan=T
         wScrn=  0.000000 ICntrl=       500 IOpCl=  0 I1Cent=   200000004 NGrid=           0
         NMat0=    1 NMatS0=      1 NMatT0=    0 NMatD0=    1 NMtDS0=    0 NMtDT0=    0
 Petite list used in FoFCou.
 Keep R1 ints in memory in canonical form, NReq=33036963.
 Requested convergence on RMS density matrix=1.00D-08 within 128 cycles.
 Requested convergence on MAX density matrix=1.00D-06.
 Requested convergence on             energy=1.00D-06.
 No special actions if energy rises.
 SCF Done:  E(RHF) =  -354.383997282     A.U. after   14 cycles
            NFock= 14  Conv=0.24D-08     -V/T= 2.0016

 **********************************************************************

            Population analysis using the SCF density.

 **********************************************************************

 Orbital symmetries:
       Occupied  (A) (A) (A) (A) (A) (A) (A) (A) (A) (A) (A) (A)
                 (A) (A) (A) (A) (A) (A) (A) (A) (A) (A) (A) (A)
                 (A) (A) (A)
       Virtual   (A) (A) (A) (A) (A) (A) (A) (A) (A) (A) (A) (A)
                 (A) (A) (A) (A) (A) (A) (A) (A) (A) (A) (A) (A)
                 (A) (A) (A) (A) (A) (A) (A) (A) (A) (A) (A) (A)
                 (A) (A) (A) (A) (A) (A) (A) (A) (A) (A) (A) (A)
                 (A) (A) (A) (A) (A) (A) (A) (A) (A) (A) (A) (A)
                 (A) (A) (A) (A) (A) (A) (A) (A) (A) (A) (A) (A)
                 (A) (A) (A) (A) (A) (A) (A) (A) (A) (A) (A) (A)
                 (A) (A) (A) (A) (A) (A) (A) (A) (A) (A) (A) (A)
                 (A) (A) (A)
 The electronic state is 1-A.
 Alpha  occ. eigenvalues --  -15.62982 -15.62981 -15.62980 -11.41360 -11.32731
 Alpha  occ. eigenvalues --  -11.32730 -11.32729 -11.30528  -1.30300  -1.27112
 Alpha  occ. eigenvalues --   -1.27111  -1.18599  -1.00004  -0.84087  -0.84086
 Alpha  occ. eigenvalues --   -0.68660  -0.62824  -0.62823  -0.60703  -0.59730
 Alpha  occ. eigenvalues --   -0.59730  -0.53777  -0.53777  -0.51031  -0.51031
 Alpha  occ. eigenvalues --   -0.50553  -0.50459
 Alpha virt. eigenvalues --    0.11847   0.13025   0.13027   0.19358   0.19453
 Alpha virt. eigenvalues --    0.19457   0.27975   0.28010   0.28012   0.28132
 Alpha virt. eigenvalues --    0.34372   0.34376   0.35482   0.52288   0.52291
 Alpha virt. eigenvalues --    0.57051   0.68446   0.68450   0.71169   0.73317
 Alpha virt. eigenvalues --    0.73318   0.77728   0.81460   0.81462   0.83510
 Alpha virt. eigenvalues --    0.87673   0.87674   0.88113   0.89742   0.91503
 Alpha virt. eigenvalues --    0.91506   1.01544   1.05796   1.06337   1.06342
 Alpha virt. eigenvalues --    1.08454   1.08459   1.12367   1.12369   1.13097
 Alpha virt. eigenvalues --    1.17648   1.19289   1.19294   1.31556   1.39004
 Alpha virt. eigenvalues --    1.42747   1.42762   1.50825   1.50833   1.66357
 Alpha virt. eigenvalues --    1.74362   1.74364   1.74855   1.75646   1.75656
 Alpha virt. eigenvalues --    1.83443   1.85911   1.85917   1.89617   1.92268
 Alpha virt. eigenvalues --    1.92278   2.12213   2.14829   2.19324   2.19328
 Alpha virt. eigenvalues --    2.24041   2.24050   2.25822   2.26277   2.28066
 Alpha virt. eigenvalues --    2.28070   2.31710   2.31719   2.42868   2.50198
 Alpha virt. eigenvalues --    2.50203   2.58243   2.58247   2.74750   2.90942
 Alpha virt. eigenvalues --    2.95778   2.95785   3.00796   3.14213   3.14220
 Alpha virt. eigenvalues --    3.21485   3.32262   3.32269   3.50895   3.67431
 Alpha virt. eigenvalues --    3.67439   4.45502   4.47146   4.47163   4.62831
 Alpha virt. eigenvalues --    4.65662   4.87974   4.87980   5.48803
          Condensed to atoms (all electrons):
               1          2          3          4          5          6
     1  C    5.063025   0.367782  -0.031467  -0.031466  -0.031464   0.310570
     2  C    0.367782   5.113512   0.388953   0.388952   0.388954  -0.060760
     3  H   -0.031467   0.388953   0.455908  -0.019073  -0.019075   0.006466
     4  H   -0.031466   0.388952  -0.019073   0.455923  -0.019078  -0.004981
     5  H   -0.031464   0.388954  -0.019075  -0.019078   0.455918  -0.004983
     6  C    0.310570  -0.060760   0.006466  -0.004981  -0.004983   4.632811
     7  C    0.310606  -0.060752  -0.004983  -0.004985   0.006466  -0.083995
     8  C    0.310612  -0.060766  -0.004980   0.006466  -0.004985  -0.083986
     9  N   -0.047591  -0.002418   0.000025   0.000070   0.000070   0.934678
    10  N   -0.047599  -0.002417   0.000070   0.000070   0.000025  -0.003621
    11  N   -0.047587  -0.002419   0.000071   0.000025   0.000070  -0.003617
               7          8          9         10         11
     1  C    0.310606   0.310612  -0.047591  -0.047599  -0.047587
     2  C   -0.060752  -0.060766  -0.002418  -0.002417  -0.002419
     3  H   -0.004983  -0.004980   0.000025   0.000070   0.000071
     4  H   -0.004985   0.006466   0.000070   0.000070   0.000025
     5  H    0.006466  -0.004985   0.000070   0.000025   0.000070
     6  C   -0.083995  -0.083986   0.934678  -0.003621  -0.003617
     7  C    4.632805  -0.083998  -0.003622   0.934635  -0.003623
     8  C   -0.083998   4.632769  -0.003621  -0.003623   0.934681
     9  N   -0.003622  -0.003621   6.517533  -0.000149  -0.000149
    10  N    0.934635  -0.003623  -0.000149   6.517593  -0.000149
    11  N   -0.003623   0.934681  -0.000149  -0.000149   6.517526
 Mulliken charges:
               1
     1  C   -0.125421
     2  C   -0.458622
     3  H    0.228085
     4  H    0.228076
     5  H    0.228082
     6  C    0.361419
     7  C    0.361444
     8  C    0.361430
     9  N   -0.394827
    10  N   -0.394836
    11  N   -0.394830
 Sum of Mulliken charges =  -0.00000
 Mulliken charges with hydrogens summed into heavy atoms:
               1
     1  C   -0.125421
     2  C    0.225621
     6  C    0.361419
     7  C    0.361444
     8  C    0.361430
     9  N   -0.394827
    10  N   -0.394836
    11  N   -0.394830
 Electronic spatial extent (au):  <R**2>=            848.8751
 Charge=             -0.0000 electrons
 Dipole moment (field-independent basis, Debye):
    X=             -0.0002    Y=             -0.0013    Z=              4.1109  Tot=              4.1109
 Quadrupole moment (field-independent basis, Debye-Ang):
   XX=            -56.3314   YY=            -56.3267   ZZ=            -42.5269
   XY=              0.0001   XZ=              0.0003   YZ=             -0.0016
 Traceless Quadrupole moment (field-independent basis, Debye-Ang):
   XX=             -4.6030   YY=             -4.5984   ZZ=              9.2014
   XY=              0.0001   XZ=              0.0003   YZ=             -0.0016
 Octapole moment (field-independent basis, Debye-Ang**2):
  XXX=              6.5447  YYY=            -18.1480  ZZZ=             10.3650  XYY=             -6.5440
  XXY=             18.1382  XXZ=             11.8550  XZZ=              0.0003  YZZ=             -0.0001
  YYZ=             11.8471  XYZ=             -0.0009
 Hexadecapole moment (field-independent basis, Debye-Ang**3):
 XXXX=           -518.4263 YYYY=           -518.2984 ZZZZ=           -235.9179 XXXY=              0.0039
 XXXZ=             -4.1440 YYYX=             -0.0048 YYYZ=             11.4949 ZZZX=              0.0000
 ZZZY=             -0.0006 XXYY=           -172.7782 XXZZ=           -119.9884 YYZZ=           -119.9676
 XXYZ=            -11.4994 YYXZ=              4.1444 ZZXY=              0.0005
 N-N= 2.930733916855D+02 E-N=-1.412438411953D+03  KE= 3.538320082476D+02
 Calling FoFJK, ICntrl=      2127 FMM=F ISym2X=0 I1Cent= 0 IOpClX= 0 NMat=1 NMatS=1 NMatT=0.
 ***** Axes restored to original set *****
 -------------------------------------------------------------------
 Center     Atomic                   Forces (Hartrees/Bohr)
 Number     Number              X              Y              Z
 -------------------------------------------------------------------
      1        6           0.000004434    0.000016382    0.008433163
      2        6           0.000004333    0.000000327    0.013730658
      3        1           0.004242861    0.001826697   -0.002917721
      4        1          -0.003706765    0.002754417   -0.002917667
      5        1          -0.000536949   -0.004581048   -0.002911329
      6        6           0.035909671    0.015511777   -0.012290149
      7        6          -0.004521874   -0.038917703   -0.012335203
      8        6          -0.031421925    0.023293651   -0.012272673
      9        7          -0.018895822   -0.008164065    0.007818744
     10        7           0.002383296    0.020517414    0.007858228
     11        7           0.016538740   -0.012257850    0.007803950
 -------------------------------------------------------------------
 Cartesian Forces:  Max     0.038917703 RMS     0.014413714

 GradGradGradGradGradGradGradGradGradGradGradGradGradGradGradGradGradGrad
 Berny optimization.
 FormGI is forming the generalized inverse of G from B-inverse, IUseBI=4.
 Internal  Forces:  Max     0.022093361 RMS     0.008594991
 Search for a local minimum.
 Step number   1 out of a maximum of   47
 All quantities printed in internal units (Hartrees-Bohrs-Radians)
 Mixed Optimization -- RFO/linear search
 Second derivative matrix not updated -- first step.
 ITU=  0
     Eigenvalues ---    0.00230   0.05132   0.05132   0.05132   0.05132
     Eigenvalues ---    0.05132   0.05132   0.05649   0.05649   0.08554
     Eigenvalues ---    0.08555   0.16000   0.16000   0.16000   0.25000
     Eigenvalues ---    0.25000   0.25000   0.28336   0.34976   0.34976
     Eigenvalues ---    0.34977   0.37127   0.37127   0.37128   1.41859
     Eigenvalues ---    1.41880   1.41880
 RFO step:  Lambda=-4.63651723D-03 EMin= 2.30000000D-03
 Linear search not attempted -- first point.
 Iteration  1 RMS(Cart)=  0.03341751 RMS(Int)=  0.00039679
 Iteration  2 RMS(Cart)=  0.00043316 RMS(Int)=  0.00004227
 Iteration  3 RMS(Cart)=  0.00000008 RMS(Int)=  0.00004227
 Variable       Old X    -DE/DX   Delta X   Delta X   Delta X     New X
                                 (Linear)    (Quad)   (Total)
    R1        2.91410   0.00498   0.00000   0.01731   0.01731   2.93141
    R2        2.75654   0.01893   0.00000   0.05035   0.05035   2.80689
    R3        2.75654   0.01892   0.00000   0.05033   0.05033   2.80688
    R4        2.75655   0.01892   0.00000   0.05033   0.05033   2.80688
    R5        2.05714  -0.00534   0.00000  -0.01505  -0.01505   2.04208
    R6        2.05714  -0.00533   0.00000  -0.01505  -0.01505   2.04209
    R7        2.05711  -0.00533   0.00000  -0.01503  -0.01503   2.04209
    R8        2.15416  -0.02201   0.00000  -0.01546  -0.01546   2.13870
    R9        2.15421  -0.02209   0.00000  -0.01552  -0.01552   2.13869
   R10        2.15416  -0.02201   0.00000  -0.01546  -0.01546   2.13870
    A1        1.92813  -0.00359   0.00000  -0.01408  -0.01418   1.91395
    A2        1.92817  -0.00358   0.00000  -0.01408  -0.01418   1.91399
    A3        1.92806  -0.00358   0.00000  -0.01403  -0.01414   1.91392
    A4        1.89282   0.00371   0.00000   0.01457   0.01446   1.90729
    A5        1.89283   0.00372   0.00000   0.01462   0.01452   1.90734
    A6        1.89283   0.00371   0.00000   0.01454   0.01444   1.90728
    A7        1.91689  -0.00120   0.00000  -0.00728  -0.00730   1.90958
    A8        1.91688  -0.00119   0.00000  -0.00726  -0.00728   1.90959
    A9        1.91685  -0.00119   0.00000  -0.00723  -0.00726   1.90959
   A10        1.90438   0.00121   0.00000   0.00733   0.00730   1.91168
   A11        1.90435   0.00121   0.00000   0.00735   0.00732   1.91167
   A12        1.90432   0.00121   0.00000   0.00737   0.00735   1.91167
   A13        3.12542  -0.00102   0.00000  -0.01823  -0.01823   3.10719
   A14        3.13241  -0.00035   0.00000  -0.00631  -0.00631   3.12609
   A15        3.12569  -0.00105   0.00000  -0.01870  -0.01870   3.10700
   A16        3.13254  -0.00036   0.00000  -0.00648  -0.00648   3.12606
   A17        3.12498  -0.00098   0.00000  -0.01751  -0.01751   3.10747
   A18        3.13274  -0.00038   0.00000  -0.00672  -0.00672   3.12602
    D1        3.14106   0.00001   0.00000   0.00029   0.00029   3.14135
    D2       -1.04768   0.00000   0.00000   0.00024   0.00024  -1.04744
    D3        1.04667   0.00001   0.00000   0.00029   0.00029   1.04696
    D4       -1.04770   0.00000   0.00000   0.00026   0.00026  -1.04744
    D5        1.04675  -0.00000   0.00000   0.00021   0.00021   1.04696
    D6        3.14110   0.00000   0.00000   0.00025   0.00025   3.14135
    D7        1.04670  -0.00000   0.00000   0.00022   0.00022   1.04692
    D8        3.14114  -0.00000   0.00000   0.00018   0.00018   3.14132
    D9       -1.04769  -0.00000   0.00000   0.00022   0.00022  -1.04747
         Item               Value     Threshold  Converged?
 Maximum Force            0.022093     0.000450     NO 
 RMS     Force            0.008595     0.000300     NO 
 Maximum Displacement     0.068465     0.001800     NO 
 RMS     Displacement     0.033385     0.001200     NO 
 Predicted change in Energy=-2.345986D-03
 GradGradGradGradGradGradGradGradGradGradGradGradGradGradGradGradGradGrad

                          Input orientation:                          
 ---------------------------------------------------------------------
 Center     Atomic      Atomic             Coordinates (Angstroms)
 Number     Number       Type             X           Y           Z
 ---------------------------------------------------------------------
      1          6           0       -0.000039    0.000111    0.282847
      2          6           0       -0.000085    0.000468    1.834083
      3          1           0       -0.935919   -0.403183    2.193287
      4          1           0        0.817463   -0.608024    2.193395
      5          1           0        0.118168    1.012865    2.193001
      6          6           0        1.284159    0.554394   -0.216995
      7          6           0       -0.161990   -1.389314   -0.216642
      8          6           0       -1.122273    0.834906   -0.217094
      9          7           0        2.273631    0.984561   -0.558691
     10          7           0       -0.284051   -2.461469   -0.557867
     11          7           0       -1.989450    1.476688   -0.559112
 ---------------------------------------------------------------------
                    Distance matrix (angstroms):
                    1          2          3          4          5
     1  C    0.000000
     2  C    1.551236   0.000000
     3  H    2.165248   1.080623   0.000000
     4  H    2.165255   1.080626   1.765307   0.000000
     5  H    2.165255   1.080626   1.765302   1.765302   0.000000
     6  C    1.485340   2.482547   3.413965   2.716432   2.716213
     7  C    1.485335   2.482576   2.716464   2.716252   3.413991
     8  C    1.485339   2.482523   2.716160   3.413954   2.716417
     9  N    2.616659   3.444357   4.449768   3.497247   3.495516
    10  N    2.616647   3.444299   3.497187   3.495430   4.449724
    11  N    2.616664   3.444442   3.495646   4.449840   3.497330
                    6          7          8          9         10
     6  C    0.000000
     7  C    2.422674   0.000000
     8  C    2.422726   2.422663   0.000000
     9  N    1.131749   3.418265   3.416321   0.000000
    10  N    3.416270   1.131746   3.418308   4.291487   0.000000
    11  N    3.418213   3.416264   1.131749   4.291392   4.291557
                   11
    11  N    0.000000
 Stoichiometry    C5H3N3
 Framework group  C1[X(C5H3N3)]
 Deg. of freedom    27
 Full point group                 C1      NOp   1
 Largest Abelian subgroup         C1      NOp   1
 Largest concise Abelian subgroup C1      NOp   1
                         Standard orientation:                         
 ---------------------------------------------------------------------
 Center     Atomic      Atomic             Coordinates (Angstroms)
 Number     Number       Type             X           Y           Z
 ---------------------------------------------------------------------
      1          6           0       -0.000018    0.000014    0.215307
      2          6           0       -0.000145   -0.000022    1.766543
      3          1           0       -0.271848    0.982294    2.125682
      4          1           0       -0.715050   -0.726472    2.125615
      5          1           0        0.986380   -0.255912    2.125765
      6          6           0        0.373197   -1.348019   -0.284447
      7          6           0       -1.353982    0.350864   -0.284600
      8          6           0        0.980855    0.997264   -0.284306
      9          7           0        0.663808   -2.387101   -0.626074
     10          7           0       -2.399186    0.618715   -0.626147
     11          7           0        1.735532    1.768312   -0.626071
 ---------------------------------------------------------------------
 Rotational constants (GHZ):           2.1378797           2.1377954           1.5246812
 Standard basis: GTBas1 (6D, 7F)
 There are   126 symmetry adapted cartesian basis functions of A   symmetry.
 There are   126 symmetry adapted basis functions of A   symmetry.
   126 basis functions,   236 primitive gaussians,   126 cartesian basis functions
    27 alpha electrons       27 beta electrons
       nuclear repulsion energy       291.0426432234 Hartrees.
 NAtoms=   11 NActive=   11 NUniq=   11 SFac= 1.00D+00 NAtFMM=   60 NAOKFM=F Big=F
 Integral buffers will be    131072 words long.
 Raffenetti 1 integral format.
 Two-electron integral symmetry is turned on.
 One-electron integrals computed using PRISM.
 NBasis=   126 RedAO= T EigKep=  6.86D-04  NBF=   126
 NBsUse=   126 1.00D-06 EigRej= -1.00D+00 NBFU=   126
 Initial guess from the checkpoint file:  "/home/artemiy/opt/gaussian/scr/Gau-75132.chk"
 B after Tr=     0.000000    0.000000   -0.000000
         Rot=    0.753934    0.000083    0.000100   -0.656950 Ang=  82.14 deg.
 ExpMin= 1.61D-01 ExpMax= 4.17D+03 ExpMxC= 6.27D+02 IAcc=2 IRadAn=         4 AccDes= 0.00D+00
 Harris functional with IExCor=  205 and IRadAn=       4 diagonalized for initial guess.
 HarFok:  IExCor=  205 AccDes= 0.00D+00 IRadAn=         4 IDoV= 1 UseB2=F ITyADJ=14
 ICtDFT=  3500011 ScaDFX=  1.000000  1.000000  1.000000  1.000000
 FoFCou: FMM=F IPFlag=           0 FMFlag=      100000 FMFlg1=           0
         NFxFlg=           0 DoJE=T BraDBF=F KetDBF=T FulRan=T
         wScrn=  0.000000 ICntrl=       500 IOpCl=  0 I1Cent=   200000004 NGrid=           0
         NMat0=    1 NMatS0=      1 NMatT0=    0 NMatD0=    1 NMtDS0=    0 NMtDT0=    0
 Petite list used in FoFCou.
 Keep R1 ints in memory in canonical form, NReq=33036963.
 Requested convergence on RMS density matrix=1.00D-08 within 128 cycles.
 Requested convergence on MAX density matrix=1.00D-06.
 Requested convergence on             energy=1.00D-06.
 No special actions if energy rises.
 SCF Done:  E(RHF) =  -354.386003991     A.U. after   12 cycles
            NFock= 12  Conv=0.48D-08     -V/T= 2.0016
 Calling FoFJK, ICntrl=      2127 FMM=F ISym2X=0 I1Cent= 0 IOpClX= 0 NMat=1 NMatS=1 NMatT=0.
 ***** Axes restored to original set *****
 -------------------------------------------------------------------
 Center     Atomic                   Forces (Hartrees/Bohr)
 Number     Number              X              Y              Z
 -------------------------------------------------------------------
      1        6          -0.000010467    0.000001502   -0.000988936
      2        6           0.000004265   -0.000006127    0.000861621
      3        1          -0.000344132   -0.000149875   -0.000237766
      4        1           0.000299535   -0.000223451   -0.000238250
      5        1           0.000042871    0.000371730   -0.000240951
      6        6          -0.004453356   -0.001727405    0.000909362
      7        6           0.000728213    0.004716865    0.000932424
      8        6           0.003742054   -0.002970896    0.000889472
      9        7           0.001958370    0.000741329   -0.000628438
     10        7          -0.000339181   -0.002073320   -0.000639136
     11        7          -0.001628171    0.001319647   -0.000619404
 -------------------------------------------------------------------
 Cartesian Forces:  Max     0.004716865 RMS     0.001629302

 GradGradGradGradGradGradGradGradGradGradGradGradGradGradGradGradGradGrad
 Berny optimization.
 Using GEDIIS/GDIIS optimizer.
 FormGI is forming the generalized inverse of G from B-inverse, IUseBI=4.
 Internal  Forces:  Max     0.002619941 RMS     0.001044565
 Search for a local minimum.
 Step number   2 out of a maximum of   47
 All quantities printed in internal units (Hartrees-Bohrs-Radians)
 Mixed Optimization -- RFO/linear search
 Update second derivatives using D2CorX and points    1    2
 DE= -2.01D-03 DEPred=-2.35D-03 R= 8.55D-01
 TightC=F SS=  1.41D+00  RLast= 1.09D-01 DXNew= 5.0454D-01 3.2816D-01
 Trust test= 8.55D-01 RLast= 1.09D-01 DXMaxT set to 3.28D-01
 ITU=  1  0
 Use linear search instead of GDIIS.
     Eigenvalues ---    0.00230   0.05120   0.05132   0.05132   0.05132
     Eigenvalues ---    0.05132   0.05141   0.05726   0.05726   0.08790
     Eigenvalues ---    0.08790   0.15886   0.16000   0.16000   0.25000
     Eigenvalues ---    0.25000   0.25447   0.28264   0.34935   0.34976
     Eigenvalues ---    0.34977   0.37127   0.37128   0.41167   1.41866
     Eigenvalues ---    1.41880   1.44271
 RFO step:  Lambda=-1.66787132D-05 EMin= 2.30000312D-03
 Quartic linear search produced a step of -0.11157.
 Iteration  1 RMS(Cart)=  0.00439024 RMS(Int)=  0.00000820
 Iteration  2 RMS(Cart)=  0.00001208 RMS(Int)=  0.00000278
 Iteration  3 RMS(Cart)=  0.00000000 RMS(Int)=  0.00000278
 Variable       Old X    -DE/DX   Delta X   Delta X   Delta X     New X
                                 (Linear)    (Quad)   (Total)
    R1        2.93141   0.00015  -0.00193   0.00239   0.00046   2.93187
    R2        2.80689  -0.00262  -0.00562  -0.00061  -0.00623   2.80066
    R3        2.80688  -0.00261  -0.00562  -0.00060  -0.00621   2.80066
    R4        2.80688  -0.00262  -0.00562  -0.00060  -0.00622   2.80067
    R5        2.04208   0.00027   0.00168  -0.00099   0.00069   2.04277
    R6        2.04209   0.00027   0.00168  -0.00100   0.00068   2.04277
    R7        2.04209   0.00027   0.00168  -0.00100   0.00068   2.04277
    R8        2.13870   0.00218   0.00173  -0.00040   0.00132   2.14002
    R9        2.13869   0.00219   0.00173  -0.00040   0.00133   2.14002
   R10        2.13870   0.00218   0.00173  -0.00040   0.00132   2.14002
    A1        1.91395   0.00085   0.00158   0.00144   0.00303   1.91698
    A2        1.91399   0.00084   0.00158   0.00139   0.00298   1.91697
    A3        1.91392   0.00086   0.00158   0.00148   0.00307   1.91699
    A4        1.90729  -0.00085  -0.00161  -0.00143  -0.00304   1.90425
    A5        1.90734  -0.00087  -0.00162  -0.00150  -0.00311   1.90424
    A6        1.90728  -0.00085  -0.00161  -0.00142  -0.00302   1.90426
    A7        1.90958  -0.00036   0.00081  -0.00277  -0.00196   1.90763
    A8        1.90959  -0.00036   0.00081  -0.00277  -0.00195   1.90764
    A9        1.90959  -0.00036   0.00081  -0.00279  -0.00198   1.90761
   A10        1.91168   0.00035  -0.00081   0.00276   0.00195   1.91363
   A11        1.91167   0.00036  -0.00082   0.00277   0.00196   1.91363
   A12        1.91167   0.00036  -0.00082   0.00278   0.00196   1.91363
   A13        3.10719   0.00002   0.00203  -0.00135   0.00069   3.10788
   A14        3.12609  -0.00018   0.00070  -0.00379  -0.00308   3.12301
   A15        3.10700   0.00004   0.00209  -0.00106   0.00102   3.10802
   A16        3.12606  -0.00018   0.00072  -0.00374  -0.00301   3.12305
   A17        3.10747  -0.00000   0.00195  -0.00175   0.00021   3.10767
   A18        3.12602  -0.00018   0.00075  -0.00370  -0.00295   3.12306
    D1        3.14135  -0.00000  -0.00003  -0.00030  -0.00033   3.14101
    D2       -1.04744  -0.00000  -0.00003  -0.00031  -0.00033  -1.04777
    D3        1.04696  -0.00000  -0.00003  -0.00030  -0.00033   1.04662
    D4       -1.04744  -0.00000  -0.00003  -0.00031  -0.00034  -1.04778
    D5        1.04696  -0.00000  -0.00002  -0.00031  -0.00034   1.04662
    D6        3.14135  -0.00000  -0.00003  -0.00031  -0.00034   3.14101
    D7        1.04692   0.00000  -0.00002  -0.00027  -0.00030   1.04663
    D8        3.14132   0.00000  -0.00002  -0.00027  -0.00029   3.14103
    D9       -1.04747   0.00000  -0.00002  -0.00027  -0.00029  -1.04776
         Item               Value     Threshold  Converged?
 Maximum Force            0.002620     0.000450     NO 
 RMS     Force            0.001045     0.000300     NO 
 Maximum Displacement     0.009396     0.001800     NO 
 RMS     Displacement     0.004388     0.001200     NO 
 Predicted change in Energy=-3.891459D-05
 GradGradGradGradGradGradGradGradGradGradGradGradGradGradGradGradGradGrad

                          Input orientation:                          
 ---------------------------------------------------------------------
 Center     Atomic      Atomic             Coordinates (Angstroms)
 Number     Number       Type             X           Y           Z
 ---------------------------------------------------------------------
      1          6           0       -0.000007    0.000106    0.285802
      2          6           0       -0.000098    0.000511    1.837282
      3          1           0       -0.936709   -0.403989    2.194597
      4          1           0        0.818564   -0.608202    2.194764
      5          1           0        0.117784    1.014016    2.194274
      6          6           0        1.279518    0.553577   -0.217135
      7          6           0       -0.160287   -1.384907   -0.216705
      8          6           0       -1.119149    0.831257   -0.217366
      9          7           0        2.269575    0.981793   -0.561893
     10          7           0       -0.284384   -2.456497   -0.561289
     11          7           0       -1.985192    1.474339   -0.562120
 ---------------------------------------------------------------------
                    Distance matrix (angstroms):
                    1          2          3          4          5
     1  C    0.000000
     2  C    1.551480   0.000000
     3  H    2.164301   1.080987   0.000000
     4  H    2.164308   1.080986   1.767112   0.000000
     5  H    2.164290   1.080986   1.767114   1.767112   0.000000
     6  C    1.482045   2.482726   3.412483   2.716516   2.715975
     7  C    1.482047   2.482722   2.716506   2.715990   3.412473
     8  C    1.482049   2.482739   2.716004   3.412498   2.716507
     9  N    2.614058   3.445341   4.449594   3.497524   3.496813
    10  N    2.614064   3.445410   3.497602   3.496929   4.449643
    11  N    2.614058   3.445272   3.496701   4.449543   3.497444
                    6          7          8          9         10
     6  C    0.000000
     7  C    2.414696   0.000000
     8  C    2.414686   2.414705   0.000000
     9  N    1.132450   3.409495   3.409518   0.000000
    10  N    3.409512   1.132450   3.409463   4.283053   0.000000
    11  N    3.409567   3.409528   1.132450   4.283182   4.283015
                   11
    11  N    0.000000
 Stoichiometry    C5H3N3
 Framework group  C1[X(C5H3N3)]
 Deg. of freedom    27
 Full point group                 C1      NOp   1
 Largest Abelian subgroup         C1      NOp   1
 Largest concise Abelian subgroup C1      NOp   1
                         Standard orientation:                         
 ---------------------------------------------------------------------
 Center     Atomic      Atomic             Coordinates (Angstroms)
 Number     Number       Type             X           Y           Z
 ---------------------------------------------------------------------
      1          6           0       -0.000002   -0.000059    0.218806
      2          6           0        0.000094   -0.000463    1.770286
      3          1           0        0.931841    0.415118    2.127600
      4          1           0       -0.825731    0.598497    2.127767
      5          1           0       -0.105758   -1.015295    2.127277
      6          6           0       -1.272871   -0.568668   -0.284131
      7          6           0        0.143838    1.386758   -0.283701
      8          6           0        1.128920   -0.817876   -0.284362
      9          7           0       -2.257780   -1.008598   -0.628889
     10          7           0        0.255216    2.459744   -0.628285
     11          7           0        2.002531   -1.450641   -0.629116
 ---------------------------------------------------------------------
 Rotational constants (GHZ):           2.1415109           2.1414066           1.5314522
 Standard basis: GTBas1 (6D, 7F)
 There are   126 symmetry adapted cartesian basis functions of A   symmetry.
 There are   126 symmetry adapted basis functions of A   symmetry.
   126 basis functions,   236 primitive gaussians,   126 cartesian basis functions
    27 alpha electrons       27 beta electrons
       nuclear repulsion energy       291.3084007519 Hartrees.
 NAtoms=   11 NActive=   11 NUniq=   11 SFac= 1.00D+00 NAtFMM=   60 NAOKFM=F Big=F
 Integral buffers will be    131072 words long.
 Raffenetti 1 integral format.
 Two-electron integral symmetry is turned on.
 One-electron integrals computed using PRISM.
 NBasis=   126 RedAO= T EigKep=  6.78D-04  NBF=   126
 NBsUse=   126 1.00D-06 EigRej= -1.00D+00 NBFU=   126
 Initial guess from the checkpoint file:  "/home/artemiy/opt/gaussian/scr/Gau-75132.chk"
 B after Tr=    -0.000000    0.000000    0.000000
         Rot=    0.757861   -0.000089   -0.000114    0.652416 Ang= -81.45 deg.
 Keep R1 ints in memory in canonical form, NReq=33036963.
 Requested convergence on RMS density matrix=1.00D-08 within 128 cycles.
 Requested convergence on MAX density matrix=1.00D-06.
 Requested convergence on             energy=1.00D-06.
 No special actions if energy rises.
 SCF Done:  E(RHF) =  -354.386043994     A.U. after   10 cycles
            NFock= 10  Conv=0.95D-08     -V/T= 2.0016
 Calling FoFJK, ICntrl=      2127 FMM=F ISym2X=0 I1Cent= 0 IOpClX= 0 NMat=1 NMatS=1 NMatT=0.
 ***** Axes restored to original set *****
 -------------------------------------------------------------------
 Center     Atomic                   Forces (Hartrees/Bohr)
 Number     Number              X              Y              Z
 -------------------------------------------------------------------
      1        6           0.000005977   -0.000001296   -0.000470911
      2        6          -0.000002556    0.000005566    0.000349974
      3        1           0.000014853    0.000003007   -0.000070511
      4        1          -0.000009308    0.000011327   -0.000072044
      5        1          -0.000005428   -0.000014727   -0.000068429
      6        6          -0.000063277   -0.000037608    0.000176580
      7        6          -0.000000165    0.000080288    0.000161975
      8        6           0.000054123   -0.000048976    0.000192176
      9        7           0.000052293    0.000025341   -0.000066179
     10        7          -0.000003502   -0.000059221   -0.000059352
     11        7          -0.000043010    0.000036300   -0.000073278
 -------------------------------------------------------------------
 Cartesian Forces:  Max     0.000470911 RMS     0.000122440

 GradGradGradGradGradGradGradGradGradGradGradGradGradGradGradGradGradGrad
 Berny optimization.
 Using GEDIIS/GDIIS optimizer.
 FormGI is forming the generalized inverse of G from B-inverse, IUseBI=4.
 Internal  Forces:  Max     0.000138908 RMS     0.000063053
 Search for a local minimum.
 Step number   3 out of a maximum of   47
 All quantities printed in internal units (Hartrees-Bohrs-Radians)
 Mixed Optimization -- En-DIIS/RFO-DIIS
 Update second derivatives using D2CorX and points    1    2    3
 DE= -4.00D-05 DEPred=-3.89D-05 R= 1.03D+00
 TightC=F SS=  1.41D+00  RLast= 1.52D-02 DXNew= 5.5190D-01 4.5617D-02
 Trust test= 1.03D+00 RLast= 1.52D-02 DXMaxT set to 3.28D-01
 ITU=  1  1  0
 Use linear search instead of GDIIS.
     Eigenvalues ---    0.00230   0.05075   0.05132   0.05132   0.05132
     Eigenvalues ---    0.05132   0.05225   0.05747   0.05747   0.08740
     Eigenvalues ---    0.08740   0.15620   0.16000   0.16000   0.25000
     Eigenvalues ---    0.25000   0.26281   0.28203   0.34923   0.34976
     Eigenvalues ---    0.34977   0.37127   0.37128   0.39713   1.41866
     Eigenvalues ---    1.41880   1.43101
 RFO step:  Lambda=-1.01139754D-06 EMin= 2.30035931D-03
 Quartic linear search produced a step of  0.00343.
 Iteration  1 RMS(Cart)=  0.00088714 RMS(Int)=  0.00000089
 Iteration  2 RMS(Cart)=  0.00000093 RMS(Int)=  0.00000005
 Variable       Old X    -DE/DX   Delta X   Delta X   Delta X     New X
                                 (Linear)    (Quad)   (Total)
    R1        2.93187   0.00014   0.00000   0.00050   0.00050   2.93238
    R2        2.80066  -0.00005  -0.00002  -0.00020  -0.00022   2.80044
    R3        2.80066  -0.00005  -0.00002  -0.00020  -0.00023   2.80044
    R4        2.80067  -0.00006  -0.00002  -0.00021  -0.00023   2.80044
    R5        2.04277  -0.00004   0.00000  -0.00010  -0.00010   2.04267
    R6        2.04277  -0.00004   0.00000  -0.00010  -0.00010   2.04267
    R7        2.04277  -0.00004   0.00000  -0.00010  -0.00010   2.04267
    R8        2.14002   0.00008   0.00000   0.00006   0.00007   2.14009
    R9        2.14002   0.00007   0.00000   0.00006   0.00007   2.14009
   R10        2.14002   0.00008   0.00000   0.00006   0.00007   2.14009
    A1        1.91698  -0.00009   0.00001  -0.00032  -0.00031   1.91667
    A2        1.91697  -0.00008   0.00001  -0.00030  -0.00029   1.91668
    A3        1.91699  -0.00009   0.00001  -0.00034  -0.00033   1.91665
    A4        1.90425   0.00009  -0.00001   0.00032   0.00031   1.90456
    A5        1.90424   0.00009  -0.00001   0.00035   0.00034   1.90457
    A6        1.90426   0.00009  -0.00001   0.00031   0.00030   1.90455
    A7        1.90763  -0.00006  -0.00001  -0.00042  -0.00043   1.90720
    A8        1.90764  -0.00007  -0.00001  -0.00044  -0.00045   1.90719
    A9        1.90761  -0.00006  -0.00001  -0.00040  -0.00041   1.90721
   A10        1.91363   0.00006   0.00001   0.00042   0.00043   1.91406
   A11        1.91363   0.00006   0.00001   0.00042   0.00042   1.91405
   A12        1.91363   0.00006   0.00001   0.00042   0.00043   1.91406
   A13        3.10788   0.00009   0.00000   0.00170   0.00170   3.10958
   A14        3.12301   0.00004  -0.00001   0.00066   0.00065   3.12366
   A15        3.10802   0.00007   0.00000   0.00143   0.00143   3.10945
   A16        3.12305   0.00003  -0.00001   0.00059   0.00058   3.12363
   A17        3.10767   0.00011   0.00000   0.00208   0.00208   3.10975
   A18        3.12306   0.00003  -0.00001   0.00057   0.00056   3.12363
    D1        3.14101   0.00000  -0.00000   0.00099   0.00099  -3.14118
    D2       -1.04777   0.00000  -0.00000   0.00098   0.00098  -1.04679
    D3        1.04662   0.00000  -0.00000   0.00098   0.00098   1.04761
    D4       -1.04778   0.00000  -0.00000   0.00100   0.00100  -1.04678
    D5        1.04662   0.00000  -0.00000   0.00099   0.00099   1.04761
    D6        3.14101   0.00000  -0.00000   0.00099   0.00099  -3.14118
    D7        1.04663   0.00000  -0.00000   0.00098   0.00098   1.04760
    D8        3.14103   0.00000  -0.00000   0.00097   0.00097  -3.14119
    D9       -1.04776   0.00000  -0.00000   0.00097   0.00097  -1.04680
         Item               Value     Threshold  Converged?
 Maximum Force            0.000139     0.000450     YES
 RMS     Force            0.000063     0.000300     YES
 Maximum Displacement     0.002082     0.001800     NO 
 RMS     Displacement     0.000887     0.001200     YES
 Predicted change in Energy=-5.061589D-07
 GradGradGradGradGradGradGradGradGradGradGradGradGradGradGradGradGradGrad

                          Input orientation:                          
 ---------------------------------------------------------------------
 Center     Atomic      Atomic             Coordinates (Angstroms)
 Number     Number       Type             X           Y           Z
 ---------------------------------------------------------------------
      1          6           0       -0.000033    0.000113    0.286010
      2          6           0       -0.000089    0.000475    1.837757
      3          1           0       -0.936401   -0.404965    2.194624
      4          1           0        0.819241   -0.607545    2.194726
      5          1           0        0.116858    1.014174    2.194342
      6          6           0        1.279545    0.553563   -0.216472
      7          6           0       -0.160397   -1.384909   -0.216092
      8          6           0       -1.119208    0.831339   -0.216602
      9          7           0        2.269265    0.981366   -0.562832
     10          7           0       -0.284653   -2.456084   -0.562026
     11          7           0       -1.984513    1.474477   -0.563222
 ---------------------------------------------------------------------
                    Distance matrix (angstroms):
                    1          2          3          4          5
     1  C    0.000000
     2  C    1.551747   0.000000
     3  H    2.164182   1.080933   0.000000
     4  H    2.164175   1.080933   1.767291   0.000000
     5  H    2.164189   1.080933   1.767289   1.767290   0.000000
     6  C    1.481930   2.482585   3.412123   2.715497   2.715885
     7  C    1.481928   2.482596   2.715517   2.715885   3.412135
     8  C    1.481927   2.482570   2.715857   3.412107   2.715500
     9  N    2.614020   3.446003   4.449918   3.497332   3.497991
    10  N    2.614016   3.445956   3.497283   3.497908   4.449884
    11  N    2.614021   3.446058   3.498079   4.449958   3.497399
                    6          7          8          9         10
     6  C    0.000000
     7  C    2.414769   0.000000
     8  C    2.414783   2.414762   0.000000
     9  N    1.132486   3.409214   3.409417   0.000000
    10  N    3.409413   1.132486   3.409244   4.282354   0.000000
    11  N    3.409163   3.409397   1.132486   4.282264   4.282386
                   11
    11  N    0.000000
 Stoichiometry    C5H3N3
 Framework group  C1[X(C5H3N3)]
 Deg. of freedom    27
 Full point group                 C1      NOp   1
 Largest Abelian subgroup         C1      NOp   1
 Largest concise Abelian subgroup C1      NOp   1
                         Standard orientation:                         
 ---------------------------------------------------------------------
 Center     Atomic      Atomic             Coordinates (Angstroms)
 Number     Number       Type             X           Y           Z
 ---------------------------------------------------------------------
      1          6           0       -0.000016    0.000007    0.219070
      2          6           0       -0.000120   -0.000027    1.770817
      3          1           0       -0.396715    0.940091    2.127619
      4          1           0       -0.616036   -0.813538    2.127556
      5          1           0        1.012310   -0.126660    2.127700
      6          6           0        0.541350   -1.284765   -0.283321
      7          6           0       -1.383295    0.173606   -0.283437
      8          6           0        0.842000    1.111228   -0.283227
      9          7           0        0.959795   -2.278501   -0.629611
     10          7           0       -2.453131    0.308096   -0.629685
     11          7           0        1.493469    1.970378   -0.629603
 ---------------------------------------------------------------------
 Rotational constants (GHZ):           2.1413738           2.1413004           1.5318460
 Standard basis: GTBas1 (6D, 7F)
 There are   126 symmetry adapted cartesian basis functions of A   symmetry.
 There are   126 symmetry adapted basis functions of A   symmetry.
   126 basis functions,   236 primitive gaussians,   126 cartesian basis functions
    27 alpha electrons       27 beta electrons
       nuclear repulsion energy       291.3115492962 Hartrees.
 NAtoms=   11 NActive=   11 NUniq=   11 SFac= 1.00D+00 NAtFMM=   60 NAOKFM=F Big=F
 Integral buffers will be    131072 words long.
 Raffenetti 1 integral format.
 Two-electron integral symmetry is turned on.
 One-electron integrals computed using PRISM.
 NBasis=   126 RedAO= T EigKep=  6.79D-04  NBF=   126
 NBsUse=   126 1.00D-06 EigRej= -1.00D+00 NBFU=   126
 Initial guess from the checkpoint file:  "/home/artemiy/opt/gaussian/scr/Gau-75132.chk"
 B after Tr=    -0.000000    0.000000    0.000000
         Rot=    0.714670    0.000081    0.000116   -0.699462 Ang=  88.77 deg.
 Keep R1 ints in memory in canonical form, NReq=33036963.
 Requested convergence on RMS density matrix=1.00D-08 within 128 cycles.
 Requested convergence on MAX density matrix=1.00D-06.
 Requested convergence on             energy=1.00D-06.
 No special actions if energy rises.
 SCF Done:  E(RHF) =  -354.386044264     A.U. after    9 cycles
            NFock=  9  Conv=0.57D-08     -V/T= 2.0016
 Calling FoFJK, ICntrl=      2127 FMM=F ISym2X=0 I1Cent= 0 IOpClX= 0 NMat=1 NMatS=1 NMatT=0.
 ***** Axes restored to original set *****
 -------------------------------------------------------------------
 Center     Atomic                   Forces (Hartrees/Bohr)
 Number     Number              X              Y              Z
 -------------------------------------------------------------------
      1        6          -0.000005894    0.000001800   -0.000026763
      2        6           0.000002723   -0.000005120    0.000104418
      3        1           0.000005418    0.000004521    0.000005372
      4        1          -0.000007330    0.000002207    0.000006889
      5        1           0.000001713   -0.000006800    0.000003629
      6        6           0.000007290   -0.000009173   -0.000080158
      7        6          -0.000012196   -0.000007415   -0.000066990
      8        6           0.000013211    0.000021475   -0.000094183
      9        7          -0.000023442   -0.000000667    0.000049091
     10        7           0.000010351    0.000021862    0.000043358
     11        7           0.000008157   -0.000022690    0.000055337
 -------------------------------------------------------------------
 Cartesian Forces:  Max     0.000104418 RMS     0.000035576

 GradGradGradGradGradGradGradGradGradGradGradGradGradGradGradGradGradGrad
 Berny optimization.
 Using GEDIIS/GDIIS optimizer.
 FormGI is forming the generalized inverse of G from B-inverse, IUseBI=4.
 Internal  Forces:  Max     0.000120114 RMS     0.000034074
 Search for a local minimum.
 Step number   4 out of a maximum of   47
 All quantities printed in internal units (Hartrees-Bohrs-Radians)
 Mixed Optimization -- En-DIIS/RFO-DIIS
 Swapping is turned off.
 Update second derivatives using D2CorX and points    1    2    3    4
 DE= -2.70D-07 DEPred=-5.06D-07 R= 5.32D-01
 Trust test= 5.32D-01 RLast= 4.60D-03 DXMaxT set to 3.28D-01
 ITU=  0  1  1  0
     Eigenvalues ---    0.00232   0.05122   0.05132   0.05132   0.05132
     Eigenvalues ---    0.05134   0.05752   0.05752   0.08706   0.08745
     Eigenvalues ---    0.08867   0.14682   0.16000   0.16005   0.23743
     Eigenvalues ---    0.25000   0.25013   0.28513   0.34795   0.34976
     Eigenvalues ---    0.34977   0.37127   0.37129   0.39237   1.41866
     Eigenvalues ---    1.41880   1.42866
 En-DIIS/RFO-DIIS/Sim-DIIS IScMMF=       -3 using points:     4    3
 RFO step:  Lambda=-2.93864180D-07.
 DidBck=T Rises=F RFO-DIIS coefs:    0.65659    0.34341
 Iteration  1 RMS(Cart)=  0.00051226 RMS(Int)=  0.00000028
 Iteration  2 RMS(Cart)=  0.00000028 RMS(Int)=  0.00000002
 Variable       Old X    -DE/DX   Delta X   Delta X   Delta X     New X
                                 (Linear)    (Quad)   (Total)
    R1        2.93238   0.00012  -0.00017   0.00053   0.00036   2.93273
    R2        2.80044  -0.00001   0.00008  -0.00011  -0.00003   2.80041
    R3        2.80044  -0.00001   0.00008  -0.00011  -0.00003   2.80041
    R4        2.80044  -0.00000   0.00008  -0.00010  -0.00003   2.80041
    R5        2.04267  -0.00000   0.00003  -0.00006  -0.00002   2.04264
    R6        2.04267  -0.00000   0.00003  -0.00006  -0.00002   2.04264
    R7        2.04267  -0.00000   0.00003  -0.00006  -0.00002   2.04264
    R8        2.14009  -0.00004  -0.00002   0.00001  -0.00001   2.14008
    R9        2.14009  -0.00004  -0.00002   0.00001  -0.00001   2.14008
   R10        2.14009  -0.00004  -0.00002   0.00001  -0.00001   2.14008
    A1        1.91667   0.00001   0.00011  -0.00014  -0.00004   1.91663
    A2        1.91668  -0.00000   0.00010  -0.00015  -0.00005   1.91663
    A3        1.91665   0.00001   0.00011  -0.00013  -0.00002   1.91663
    A4        1.90456  -0.00000  -0.00011   0.00014   0.00004   1.90460
    A5        1.90457  -0.00001  -0.00012   0.00014   0.00002   1.90460
    A6        1.90455  -0.00000  -0.00010   0.00015   0.00004   1.90459
    A7        1.90720   0.00001   0.00015  -0.00017  -0.00002   1.90717
    A8        1.90719   0.00001   0.00015  -0.00017  -0.00001   1.90718
    A9        1.90721   0.00000   0.00014  -0.00017  -0.00003   1.90717
   A10        1.91406  -0.00001  -0.00015   0.00017   0.00002   1.91408
   A11        1.91405  -0.00001  -0.00014   0.00017   0.00002   1.91408
   A12        1.91406  -0.00001  -0.00015   0.00017   0.00002   1.91408
   A13        3.10958  -0.00009  -0.00059  -0.00031  -0.00090   3.10868
   A14        3.12366  -0.00001  -0.00022   0.00014  -0.00008   3.12357
   A15        3.10945  -0.00007  -0.00049  -0.00029  -0.00078   3.10868
   A16        3.12363  -0.00001  -0.00020   0.00014  -0.00006   3.12357
   A17        3.10975  -0.00010  -0.00071  -0.00035  -0.00107   3.10868
   A18        3.12363  -0.00001  -0.00019   0.00014  -0.00006   3.12357
    D1       -3.14118  -0.00000  -0.00034   0.00004  -0.00030  -3.14148
    D2       -1.04679  -0.00000  -0.00034   0.00004  -0.00029  -1.04708
    D3        1.04761  -0.00000  -0.00034   0.00004  -0.00029   1.04731
    D4       -1.04678  -0.00000  -0.00034   0.00004  -0.00030  -1.04708
    D5        1.04761  -0.00000  -0.00034   0.00004  -0.00030   1.04731
    D6       -3.14118  -0.00000  -0.00034   0.00004  -0.00030  -3.14148
    D7        1.04760  -0.00000  -0.00034   0.00004  -0.00029   1.04731
    D8       -3.14119  -0.00000  -0.00033   0.00004  -0.00029  -3.14148
    D9       -1.04680  -0.00000  -0.00033   0.00004  -0.00029  -1.04708
         Item               Value     Threshold  Converged?
 Maximum Force            0.000120     0.000450     YES
 RMS     Force            0.000034     0.000300     YES
 Maximum Displacement     0.001402     0.001800     YES
 RMS     Displacement     0.000512     0.001200     YES
 Predicted change in Energy=-1.469324D-07
 Optimization completed.
    -- Stationary point found.
                           ----------------------------
                           !   Optimized Parameters   !
                           ! (Angstroms and Degrees)  !
 --------------------------                            --------------------------
 ! Name  Definition              Value          Derivative Info.                !
 --------------------------------------------------------------------------------
 ! R1    R(1,2)                  1.5517         -DE/DX =    0.0001              !
 ! R2    R(1,6)                  1.4819         -DE/DX =    0.0                 !
 ! R3    R(1,7)                  1.4819         -DE/DX =    0.0                 !
 ! R4    R(1,8)                  1.4819         -DE/DX =    0.0                 !
 ! R5    R(2,3)                  1.0809         -DE/DX =    0.0                 !
 ! R6    R(2,4)                  1.0809         -DE/DX =    0.0                 !
 ! R7    R(2,5)                  1.0809         -DE/DX =    0.0                 !
 ! R8    R(6,9)                  1.1325         -DE/DX =    0.0                 !
 ! R9    R(7,10)                 1.1325         -DE/DX =    0.0                 !
 ! R10   R(8,11)                 1.1325         -DE/DX =    0.0                 !
 ! A1    A(2,1,6)              109.817          -DE/DX =    0.0                 !
 ! A2    A(2,1,7)              109.8178         -DE/DX =    0.0                 !
 ! A3    A(2,1,8)              109.8161         -DE/DX =    0.0                 !
 ! A4    A(6,1,7)              109.123          -DE/DX =    0.0                 !
 ! A5    A(6,1,8)              109.124          -DE/DX =    0.0                 !
 ! A6    A(7,1,8)              109.1227         -DE/DX =    0.0                 !
 ! A7    A(1,2,3)              109.2744         -DE/DX =    0.0                 !
 ! A8    A(1,2,4)              109.2738         -DE/DX =    0.0                 !
 ! A9    A(1,2,5)              109.2749         -DE/DX =    0.0                 !
 ! A10   A(3,2,4)              109.6675         -DE/DX =    0.0                 !
 ! A11   A(3,2,5)              109.6673         -DE/DX =    0.0                 !
 ! A12   A(4,2,5)              109.6673         -DE/DX =    0.0                 !
 ! A13   L(1,6,9,5,-1)         178.1658         -DE/DX =   -0.0001              !
 ! A14   L(1,6,9,5,-2)         178.9724         -DE/DX =    0.0                 !
 ! A15   L(1,7,10,4,-1)        178.1586         -DE/DX =   -0.0001              !
 ! A16   L(1,7,10,4,-2)        178.9709         -DE/DX =    0.0                 !
 ! A17   L(1,8,11,3,-1)        178.1756         -DE/DX =   -0.0001              !
 ! A18   L(1,8,11,3,-2)        178.9706         -DE/DX =    0.0                 !
 ! D1    D(6,1,2,3)           -179.9764         -DE/DX =    0.0                 !
 ! D2    D(6,1,2,4)            -59.9766         -DE/DX =    0.0                 !
 ! D3    D(6,1,2,5)             60.0234         -DE/DX =    0.0                 !
 ! D4    D(7,1,2,3)            -59.9761         -DE/DX =    0.0                 !
 ! D5    D(7,1,2,4)             60.0237         -DE/DX =    0.0                 !
 ! D6    D(7,1,2,5)           -179.9764         -DE/DX =    0.0                 !
 ! D7    D(8,1,2,3)             60.0232         -DE/DX =    0.0                 !
 ! D8    D(8,1,2,4)           -179.977          -DE/DX =    0.0                 !
 ! D9    D(8,1,2,5)            -59.977          -DE/DX =    0.0                 !
 --------------------------------------------------------------------------------
 GradGradGradGradGradGradGradGradGradGradGradGradGradGradGradGradGradGrad

                          Input orientation:                          
 ---------------------------------------------------------------------
 Center     Atomic      Atomic             Coordinates (Angstroms)
 Number     Number       Type             X           Y           Z
 ---------------------------------------------------------------------
      1          6           0       -0.000033    0.000113    0.286010
      2          6           0       -0.000089    0.000475    1.837757
      3          1           0       -0.936401   -0.404965    2.194624
      4          1           0        0.819241   -0.607545    2.194726
      5          1           0        0.116858    1.014174    2.194342
      6          6           0        1.279545    0.553563   -0.216472
      7          6           0       -0.160397   -1.384909   -0.216092
      8          6           0       -1.119208    0.831339   -0.216602
      9          7           0        2.269265    0.981366   -0.562832
     10          7           0       -0.284653   -2.456084   -0.562026
     11          7           0       -1.984513    1.474477   -0.563222
 ---------------------------------------------------------------------
                    Distance matrix (angstroms):
                    1          2          3          4          5
     1  C    0.000000
     2  C    1.551747   0.000000
     3  H    2.164182   1.080933   0.000000
     4  H    2.164175   1.080933   1.767291   0.000000
     5  H    2.164189   1.080933   1.767289   1.767290   0.000000
     6  C    1.481930   2.482585   3.412123   2.715497   2.715885
     7  C    1.481928   2.482596   2.715517   2.715885   3.412135
     8  C    1.481927   2.482570   2.715857   3.412107   2.715500
     9  N    2.614020   3.446003   4.449918   3.497332   3.497991
    10  N    2.614016   3.445956   3.497283   3.497908   4.449884
    11  N    2.614021   3.446058   3.498079   4.449958   3.497399
                    6          7          8          9         10
     6  C    0.000000
     7  C    2.414769   0.000000
     8  C    2.414783   2.414762   0.000000
     9  N    1.132486   3.409214   3.409417   0.000000
    10  N    3.409413   1.132486   3.409244   4.282354   0.000000
    11  N    3.409163   3.409397   1.132486   4.282264   4.282386
                   11
    11  N    0.000000
 Stoichiometry    C5H3N3
 Framework group  C1[X(C5H3N3)]
 Deg. of freedom    27
 Full point group                 C1      NOp   1
 Largest Abelian subgroup         C1      NOp   1
 Largest concise Abelian subgroup C1      NOp   1
                         Standard orientation:                         
 ---------------------------------------------------------------------
 Center     Atomic      Atomic             Coordinates (Angstroms)
 Number     Number       Type             X           Y           Z
 ---------------------------------------------------------------------
      1          6           0       -0.000016    0.000007    0.219070
      2          6           0       -0.000120   -0.000027    1.770817
      3          1           0       -0.396715    0.940091    2.127619
      4          1           0       -0.616036   -0.813538    2.127556
      5          1           0        1.012310   -0.126660    2.127700
      6          6           0        0.541350   -1.284765   -0.283321
      7          6           0       -1.383295    0.173606   -0.283437
      8          6           0        0.842000    1.111228   -0.283227
      9          7           0        0.959795   -2.278501   -0.629611
     10          7           0       -2.453131    0.308096   -0.629685
     11          7           0        1.493469    1.970378   -0.629603
 ---------------------------------------------------------------------
 Rotational constants (GHZ):           2.1413738           2.1413004           1.5318460

 **********************************************************************

            Population analysis using the SCF density.

 **********************************************************************

 Orbital symmetries:
       Occupied  (A) (A) (A) (A) (A) (A) (A) (A) (A) (A) (A) (A)
                 (A) (A) (A) (A) (A) (A) (A) (A) (A) (A) (A) (A)
                 (A) (A) (A)
       Virtual   (A) (A) (A) (A) (A) (A) (A) (A) (A) (A) (A) (A)
                 (A) (A) (A) (A) (A) (A) (A) (A) (A) (A) (A) (A)
                 (A) (A) (A) (A) (A) (A) (A) (A) (A) (A) (A) (A)
                 (A) (A) (A) (A) (A) (A) (A) (A) (A) (A) (A) (A)
                 (A) (A) (A) (A) (A) (A) (A) (A) (A) (A) (A) (A)
                 (A) (A) (A) (A) (A) (A) (A) (A) (A) (A) (A) (A)
                 (A) (A) (A) (A) (A) (A) (A) (A) (A) (A) (A) (A)
                 (A) (A) (A) (A) (A) (A) (A) (A) (A) (A) (A) (A)
                 (A) (A) (A)
 The electronic state is 1-A.
 Alpha  occ. eigenvalues --  -15.62751 -15.62751 -15.62751 -11.42033 -11.32634
 Alpha  occ. eigenvalues --  -11.32634 -11.32632 -11.30333  -1.30039  -1.27472
 Alpha  occ. eigenvalues --   -1.27472  -1.17940  -0.99644  -0.83134  -0.83133
 Alpha  occ. eigenvalues --   -0.67990  -0.63043  -0.63043  -0.60632  -0.59675
 Alpha  occ. eigenvalues --   -0.59675  -0.53882  -0.53882  -0.51409  -0.51409
 Alpha  occ. eigenvalues --   -0.50862  -0.50674
 Alpha virt. eigenvalues --    0.12215   0.13300   0.13300   0.19184   0.19306
 Alpha virt. eigenvalues --    0.19308   0.27885   0.28127   0.28215   0.28215
 Alpha virt. eigenvalues --    0.34062   0.34063   0.35325   0.51848   0.51849
 Alpha virt. eigenvalues --    0.56483   0.68220   0.68220   0.70650   0.72787
 Alpha virt. eigenvalues --    0.72787   0.77202   0.81436   0.81436   0.83535
 Alpha virt. eigenvalues --    0.87496   0.87496   0.87607   0.88164   0.92004
 Alpha virt. eigenvalues --    0.92005   1.00761   1.05725   1.05726   1.05810
 Alpha virt. eigenvalues --    1.08827   1.08829   1.13131   1.13131   1.13985
 Alpha virt. eigenvalues --    1.18341   1.19501   1.19502   1.31327   1.38830
 Alpha virt. eigenvalues --    1.43105   1.43111   1.51790   1.51794   1.66775
 Alpha virt. eigenvalues --    1.73394   1.73397   1.74448   1.74990   1.74991
 Alpha virt. eigenvalues --    1.83228   1.86229   1.86232   1.88805   1.91049
 Alpha virt. eigenvalues --    1.91053   2.11479   2.14571   2.18557   2.18560
 Alpha virt. eigenvalues --    2.24355   2.24359   2.25854   2.26120   2.28211
 Alpha virt. eigenvalues --    2.28212   2.31652   2.31656   2.40705   2.47144
 Alpha virt. eigenvalues --    2.47145   2.58729   2.58730   2.74699   2.91067
 Alpha virt. eigenvalues --    2.96111   2.96113   3.01004   3.13558   3.13563
 Alpha virt. eigenvalues --    3.19974   3.30143   3.30145   3.50553   3.67486
 Alpha virt. eigenvalues --    3.67488   4.44796   4.46514   4.46521   4.61412
 Alpha virt. eigenvalues --    4.64729   4.86240   4.86241   5.46305
          Condensed to atoms (all electrons):
               1          2          3          4          5          6
     1  C    5.070605   0.366631  -0.031839  -0.031842  -0.031839   0.310037
     2  C    0.366631   5.106805   0.389588   0.389589   0.389587  -0.059881
     3  H   -0.031839   0.389588   0.454784  -0.018873  -0.018875   0.006156
     4  H   -0.031842   0.389589  -0.018873   0.454781  -0.018874  -0.004657
     5  H   -0.031839   0.389587  -0.018875  -0.018874   0.454783  -0.004658
     6  C    0.310037  -0.059881   0.006156  -0.004657  -0.004658   4.611391
     7  C    0.310031  -0.059881  -0.004656  -0.004657   0.006156  -0.076920
     8  C    0.310020  -0.059885  -0.004659   0.006156  -0.004657  -0.076922
     9  N   -0.045846  -0.002336   0.000024   0.000080   0.000079   0.940188
    10  N   -0.045843  -0.002336   0.000080   0.000079   0.000024  -0.003079
    11  N   -0.045847  -0.002336   0.000079   0.000024   0.000080  -0.003085
               7          8          9         10         11
     1  C    0.310031   0.310020  -0.045846  -0.045843  -0.045847
     2  C   -0.059881  -0.059885  -0.002336  -0.002336  -0.002336
     3  H   -0.004656  -0.004659   0.000024   0.000080   0.000079
     4  H   -0.004657   0.006156   0.000080   0.000079   0.000024
     5  H    0.006156  -0.004657   0.000079   0.000024   0.000080
     6  C   -0.076920  -0.076922   0.940188  -0.003079  -0.003085
     7  C    4.611399  -0.076922  -0.003083   0.940189  -0.003079
     8  C   -0.076922   4.611416  -0.003079  -0.003083   0.940190
     9  N   -0.003083  -0.003079   6.507220  -0.000117  -0.000117
    10  N    0.940189  -0.003083  -0.000117   6.507214  -0.000117
    11  N   -0.003079   0.940190  -0.000117  -0.000117   6.507224
 Mulliken charges:
               1
     1  C   -0.134269
     2  C   -0.455546
     3  H    0.228192
     4  H    0.228194
     5  H    0.228193
     6  C    0.361429
     7  C    0.361424
     8  C    0.361425
     9  N   -0.393014
    10  N   -0.393011
    11  N   -0.393017
 Sum of Mulliken charges =  -0.00000
 Mulliken charges with hydrogens summed into heavy atoms:
               1
     1  C   -0.134269
     2  C    0.229033
     6  C    0.361429
     7  C    0.361424
     8  C    0.361425
     9  N   -0.393014
    10  N   -0.393011
    11  N   -0.393017
 Electronic spatial extent (au):  <R**2>=            861.8595
 Charge=             -0.0000 electrons
 Dipole moment (field-independent basis, Debye):
    X=             -0.0003    Y=              0.0001    Z=              3.9568  Tot=              3.9568
 Quadrupole moment (field-independent basis, Debye-Ang):
   XX=            -56.6266   YY=            -56.6255   ZZ=            -42.4354
   XY=             -0.0000   XZ=             -0.0002   YZ=              0.0000
 Traceless Quadrupole moment (field-independent basis, Debye-Ang):
   XX=             -4.7307   YY=             -4.7297   ZZ=              9.4604
   XY=             -0.0000   XZ=             -0.0002   YZ=              0.0000
 Octapole moment (field-independent basis, Debye-Ang**2):
  XXX=             18.6757  YYY=              7.3474  ZZZ=              9.8920  XYY=            -18.6776
  XXY=             -7.3475  XXZ=             11.7465  XZZ=              0.0001  YZZ=             -0.0001
  YYZ=             11.7450  XYZ=             -0.0001
 Hexadecapole moment (field-independent basis, Debye-Ang**3):
 XXXX=           -533.3735 YYYY=           -533.3458 ZZZZ=           -231.3735 XXXY=             -0.0013
 XXXZ=            -11.5003 YYYX=              0.0011 YYYZ=             -4.5276 ZZZX=             -0.0008
 ZZZY=             -0.0000 XXYY=           -177.7883 XXZZ=           -120.5740 YYZZ=           -120.5697
 XXYZ=              4.5274 YYXZ=             11.4980 ZZXY=             -0.0001
 N-N= 2.913115492962D+02 E-N=-1.408951803764D+03  KE= 3.538271204005D+02
 1\1\GINC-ARTEMIY-VIRTUALBOX\FOpt\RHF\GTBas1\C5H3N3\ARTEMIY\16-Jun-2022
 \0\\# g3mp2 geom=gic\\Title Card Required\\0,1\C,-0.0000327876,0.00011
 31942,0.2860098013\C,-0.0000894188,0.0004746839,1.8377565809\H,-0.9364
 014655,-0.4049648318,2.1946244124\H,0.8192406332,-0.6075446824,2.19472
 56086\H,0.116857989,1.0141742789,2.194342176\C,1.2795454737,0.55356266
 17,-0.2164722852\C,-0.1603967604,-1.3849093774,-0.2160924995\C,-1.1192
 075801,0.8313390892,-0.2166024791\N,2.2692645106,0.9813660919,-0.56283
 18528\N,-0.2846531155,-2.4560836383,-0.5620264256\N,-1.9845129216,1.47
 44769199,-0.5632219486\\Version=ES64L-G16RevA.03\State=1-A\HF=-354.386
 0443\RMSD=5.690e-09\RMSF=3.558e-05\Dipole=-0.000112,0.0003638,1.55673\
 Quadrupole=-3.5163948,-3.5171913,7.0335861,0.0000247,-0.0006199,0.0030
 023\PG=C01 [X(C5H3N3)]\\@


 TRUST EVERYONE, BUT CUT THE CARDS.
 Job cpu time:       0 days  0 hours  0 minutes 40.5 seconds.
 Elapsed time:       0 days  0 hours  0 minutes 11.5 seconds.
 File lengths (MBytes):  RWF=     10 Int=      0 D2E=      0 Chk=      3 Scr=      1
 Normal termination of Gaussian 16 at Thu Jun 16 14:35:13 2022.
 Link1:  Proceeding to internal job step number  2.
 -------------------------------------------------------
 #N Geom=AllCheck Guess=TCheck SCRF=Check HF/GTBas1 Freq
 -------------------------------------------------------
 1/10=4,29=7,30=1,38=1,40=1/1,3;
 2/12=2,40=1/2;
 3/5=33,11=9,14=-4,25=1,30=1,70=2,71=2,116=-2,140=1/1,2,3;
 4/5=101/1;
 5/5=2,38=6,98=1/2;
 8/6=4,10=90,11=11/1;
 10/13=10,15=4/2;
 11/6=3,8=1,9=11,15=111,16=1/1,2,10;
 10/6=1/2;
 6/7=2,8=2,9=2,10=2,28=1/1;
 7/8=1,10=1,25=1/1,2,3,16;
 1/10=4,30=1/3;
 99//99;
 Structure from the checkpoint file:  "/home/artemiy/opt/gaussian/scr/Gau-75132.chk"
 -------------------
 Title Card Required
 -------------------
 Charge =  0 Multiplicity = 1
 Redundant internal coordinates found in file.  (GICs).
 C,0,-0.0000327876,0.0001131942,0.2860098013
 C,0,-0.0000894188,0.0004746839,1.8377565809
 H,0,-0.9364014655,-0.4049648318,2.1946244124
 H,0,0.8192406332,-0.6075446824,2.1947256086
 H,0,0.116857989,1.0141742789,2.194342176
 C,0,1.2795454737,0.5535626617,-0.2164722852
 C,0,-0.1603967604,-1.3849093774,-0.2160924995
 C,0,-1.1192075801,0.8313390892,-0.2166024791
 N,0,2.2692645106,0.9813660919,-0.5628318528
 N,0,-0.2846531155,-2.4560836383,-0.5620264256
 N,0,-1.9845129216,1.4744769199,-0.5632219486
 Recover connectivity data from disk.
 Re-initializing GIC definitions from chk.
 Skipping GIC derivative info from chk, if any.
 No input coordinate modifications requested.
 Forming B-matrix definitions.
 Forming B-matrix derivative definitions.

 GradGradGradGradGradGradGradGradGradGradGradGradGradGradGradGradGradGrad
 Berny optimization.
 Initialization pass.
                           ----------------------------
                           !    Initial Parameters    !
                           ! (Angstroms and Degrees)  !
 --------------------------                            --------------------------
 ! Name  Definition              Value          Derivative Info.                !
 --------------------------------------------------------------------------------
 ! R1    R(1,2)                  1.5517         calculate D2E/DX2 analytically  !
 ! R2    R(1,6)                  1.4819         calculate D2E/DX2 analytically  !
 ! R3    R(1,7)                  1.4819         calculate D2E/DX2 analytically  !
 ! R4    R(1,8)                  1.4819         calculate D2E/DX2 analytically  !
 ! R5    R(2,3)                  1.0809         calculate D2E/DX2 analytically  !
 ! R6    R(2,4)                  1.0809         calculate D2E/DX2 analytically  !
 ! R7    R(2,5)                  1.0809         calculate D2E/DX2 analytically  !
 ! R8    R(6,9)                  1.1325         calculate D2E/DX2 analytically  !
 ! R9    R(7,10)                 1.1325         calculate D2E/DX2 analytically  !
 ! R10   R(8,11)                 1.1325         calculate D2E/DX2 analytically  !
 ! A1    A(2,1,6)              109.817          calculate D2E/DX2 analytically  !
 ! A2    A(2,1,7)              109.8178         calculate D2E/DX2 analytically  !
 ! A3    A(2,1,8)              109.8161         calculate D2E/DX2 analytically  !
 ! A4    A(6,1,7)              109.123          calculate D2E/DX2 analytically  !
 ! A5    A(6,1,8)              109.124          calculate D2E/DX2 analytically  !
 ! A6    A(7,1,8)              109.1227         calculate D2E/DX2 analytically  !
 ! A7    A(1,2,3)              109.2744         calculate D2E/DX2 analytically  !
 ! A8    A(1,2,4)              109.2738         calculate D2E/DX2 analytically  !
 ! A9    A(1,2,5)              109.2749         calculate D2E/DX2 analytically  !
[...]
                 (A) (A) (A) (A) (A) (A) (A) (A) (A) (A) (A) (A)
                 (A) (A) (A) (A) (A) (A) (A) (A) (A) (A) (A) (A)
                 (A) (A) (A) (A) (A) (A) (A) (A) (A) (A) (A) (A)
                 (A) (A) (A) (A) (A) (A) (A) (A) (A) (A) (A) (A)
                 (A) (A) (A) (A) (A) (A) (A) (A) (A) (A) (A) (A)
                 (A) (A) (A) (A) (A) (A) (A) (A) (A) (A) (A) (A)
                 (A) (A) (A) (A) (A) (A) (A) (A) (A) (A) (A) (A)
                 (A) (A) (A) (A) (A) (A) (A) (A) (A) (A) (A) (A)
                 (A) (A) (A) (A) (A) (A) (A) (A) (A) (A) (A) (A)
                 (A) (A) (A) (A) (A) (A) (A) (A) (A) (A) (A) (A)
                 (A) (A) (A) (A) (A) (A) (A) (A) (A) (A) (A) (A)
                 (A) (A) (A) (A) (A) (A) (A) (A) (A) (A) (A) (A)
                 (A) (A) (A) (A) (A) (A) (A) (A) (A) (A) (A) (A)
                 (A) (A) (A) (A) (A) (A) (A) (A) (A) (A) (A) (A)
                 (A) (A) (A) (A) (A) (A) (A) (A) (A) (A) (A) (A)
                 (A) (A) (A) (A) (A) (A) (A) (A) (A) (A) (A) (A)
                 (A) (A) (A) (A) (A) (A) (A) (A) (A) (A) (A) (A)
                 (A) (A) (A) (A) (A) (A) (A) (A) (A) (A) (A) (A)
                 (A) (A) (A) (A) (A) (A) (A) (A) (A) (A) (A)
 The electronic state is 1-A.
 Alpha  occ. eigenvalues --  -15.63870 -15.63870 -15.63870 -11.42493 -11.33933
 Alpha  occ. eigenvalues --  -11.33933 -11.33932 -11.30795  -1.29051  -1.25458
 Alpha  occ. eigenvalues --   -1.25458  -1.18122  -1.00032  -0.84527  -0.84527
 Alpha  occ. eigenvalues --   -0.68536  -0.63419  -0.63419  -0.61638  -0.60329
 Alpha  occ. eigenvalues --   -0.60329  -0.53113  -0.53113  -0.50516  -0.50516
 Alpha  occ. eigenvalues --   -0.50066  -0.49836
 Alpha virt. eigenvalues --    0.02580   0.05608   0.05608   0.06045   0.09116
 Alpha virt. eigenvalues --    0.09116   0.09182   0.09654   0.10098   0.10098
 Alpha virt. eigenvalues --    0.12189   0.12831   0.12831   0.14449   0.14449
 Alpha virt. eigenvalues --    0.16209   0.16209   0.16300   0.16441   0.16620
 Alpha virt. eigenvalues --    0.16620   0.17687   0.20296   0.20296   0.22081
 Alpha virt. eigenvalues --    0.23011   0.23228   0.23228   0.24615   0.29832
 Alpha virt. eigenvalues --    0.29926   0.29926   0.31286   0.31589   0.31589
 Alpha virt. eigenvalues --    0.32671   0.32671   0.33936   0.33936   0.34817
 Alpha virt. eigenvalues --    0.35867   0.37423   0.37424   0.39995   0.40634
 Alpha virt. eigenvalues --    0.41254   0.41254   0.46125   0.53551   0.53551
 Alpha virt. eigenvalues --    0.58857   0.58857   0.62595   0.65620   0.67700
 Alpha virt. eigenvalues --    0.67701   0.71158   0.71158   0.76078   0.76078
 Alpha virt. eigenvalues --    0.76326   0.76344   0.78174   0.78174   0.80712
 Alpha virt. eigenvalues --    0.81601   0.81601   0.82250   0.84605   0.86003
 Alpha virt. eigenvalues --    0.86003   0.91634   0.91848   0.93338   0.93338
 Alpha virt. eigenvalues --    0.96848   0.96848   0.99134   1.02249   1.02297
 Alpha virt. eigenvalues --    1.04127   1.04127   1.05487   1.05487   1.07834
 Alpha virt. eigenvalues --    1.08254   1.08981   1.08981   1.15646   1.16144
 Alpha virt. eigenvalues --    1.16144   1.18509   1.18509   1.22927   1.28479
 Alpha virt. eigenvalues --    1.28480   1.34348   1.38062   1.38062   1.38990
 Alpha virt. eigenvalues --    1.42473   1.43447   1.43447   1.46386   1.46386
 Alpha virt. eigenvalues --    1.46848   1.51763   1.51763   1.58506   1.58506
 Alpha virt. eigenvalues --    1.59087   1.63529   1.63530   1.66302   1.67318
 Alpha virt. eigenvalues --    1.67318   1.72400   1.72400   1.75901   1.76288
 Alpha virt. eigenvalues --    1.76288   1.78182   1.82186   2.03668   2.07130
 Alpha virt. eigenvalues --    2.07130   2.12077   2.17665   2.17665   2.25812
 Alpha virt. eigenvalues --    2.26106   2.26106   2.46570   2.46570   2.53023
 Alpha virt. eigenvalues --    2.81003   2.81003   2.86618   2.87617   2.88664
 Alpha virt. eigenvalues --    2.88664   2.98852   2.98852   3.00545   3.00545
 Alpha virt. eigenvalues --    3.03081   3.05618   3.05618   3.07230   3.08913
 Alpha virt. eigenvalues --    3.08913   3.09519   3.13692   3.13693   3.14019
 Alpha virt. eigenvalues --    3.16958   3.16958   3.17348   3.19594   3.22988
 Alpha virt. eigenvalues --    3.23566   3.23566   3.30690   3.32837   3.39137
 Alpha virt. eigenvalues --    3.39137   3.40714   3.40714   3.42212   3.48983
 Alpha virt. eigenvalues --    3.50684   3.50684   3.57827   3.57827   3.59182
 Alpha virt. eigenvalues --    3.59338   3.62537   3.62538   3.66935   3.66935
 Alpha virt. eigenvalues --    3.74085   3.74085   3.74450   3.77137   3.78145
 Alpha virt. eigenvalues --    3.79535   3.79535   3.84846   3.91774   3.91774
 Alpha virt. eigenvalues --    3.96879   3.96879   3.97143   3.97208   3.97803
 Alpha virt. eigenvalues --    3.97803   4.02582   4.02582   4.17032   4.17033
 Alpha virt. eigenvalues --    4.17671   4.21686   4.21686   4.27298   4.27298
 Alpha virt. eigenvalues --    4.30105   4.32117   4.32118   4.44120   4.45784
 Alpha virt. eigenvalues --    4.45818   4.45818   4.46731   4.50153   4.51715
 Alpha virt. eigenvalues --    4.51715   4.54559   4.54559   4.58270   4.59106
 Alpha virt. eigenvalues --    4.59106   4.66289   4.66753   4.66753   4.75094
 Alpha virt. eigenvalues --    4.80388   4.80388   4.88608   4.88609   4.92420
 Alpha virt. eigenvalues --    4.96124   4.98931   4.98931   5.00319   5.00320
 Alpha virt. eigenvalues --    5.06641   5.12836   5.22676   5.22676   5.23284
 Alpha virt. eigenvalues --    5.25218   5.25218   5.25676   5.41843   5.59344
 Alpha virt. eigenvalues --    5.59344   5.60549   5.65031   5.65754   5.65755
 Alpha virt. eigenvalues --    5.69979   5.69980   5.78762   6.04944   6.04944
 Alpha virt. eigenvalues --    6.38260   6.38260   6.39092   6.46795   6.48567
 Alpha virt. eigenvalues --    6.48567   6.54039   6.56757   6.56757   7.15819
 Alpha virt. eigenvalues --    7.66256   7.66256  25.37720  25.48823  25.73442
 Alpha virt. eigenvalues --   25.73443  26.01287  37.63122  37.63198  37.63198
          Condensed to atoms (all electrons):
               1          2          3          4          5          6
     1  C    6.220939   0.150448   0.013856   0.013856   0.013856  -0.772401
     2  C    0.150448   4.922836   0.381238   0.381237   0.381237   0.064574
     3  H    0.013856   0.381238   0.550613  -0.024392  -0.024391   0.010665
     4  H    0.013856   0.381237  -0.024392   0.550613  -0.024392  -0.019264
     5  H    0.013856   0.381237  -0.024391  -0.024392   0.550613  -0.019250
     6  C   -0.772401   0.064574   0.010665  -0.019264  -0.019250   6.253179
     7  C   -0.772411   0.064571  -0.019264  -0.019250   0.010665   0.134416
     8  C   -0.772394   0.064576  -0.019251   0.010665  -0.019264   0.134406
     9  N    0.156225  -0.007391   0.002204  -0.000877  -0.000878   0.430625
    10  N    0.156225  -0.007391  -0.000877  -0.000878   0.002204  -0.012652
    11  N    0.156224  -0.007391  -0.000878   0.002204  -0.000877  -0.012655
               7          8          9         10         11
     1  C   -0.772411  -0.772394   0.156225   0.156225   0.156224
     2  C    0.064571   0.064576  -0.007391  -0.007391  -0.007391
     3  H   -0.019264  -0.019251   0.002204  -0.000877  -0.000878
     4  H   -0.019250   0.010665  -0.000877  -0.000878   0.002204
     5  H    0.010665  -0.019264  -0.000878   0.002204  -0.000877
     6  C    0.134416   0.134406   0.430625  -0.012652  -0.012655
     7  C    6.253196   0.134404  -0.012655   0.430622  -0.012651
     8  C    0.134404   6.253179  -0.012651  -0.012654   0.430626
     9  N   -0.012655  -0.012651   6.732595   0.000325   0.000325
    10  N    0.430622  -0.012654   0.000325   6.732596   0.000325
    11  N   -0.012651   0.430626   0.000325   0.000325   6.732593
 Mulliken charges:
               1
     1  C    1.435577
     2  C   -0.388543
     3  H    0.130477
     4  H    0.130477
     5  H    0.130477
     6  C   -0.191642
     7  C   -0.191644
     8  C   -0.191642
     9  N   -0.287846
    10  N   -0.287846
    11  N   -0.287846
 Sum of Mulliken charges =  -0.00000
 Mulliken charges with hydrogens summed into heavy atoms:
               1
     1  C    1.435577
     2  C    0.002888
     6  C   -0.191642
     7  C   -0.191644
     8  C   -0.191642
     9  N   -0.287846
    10  N   -0.287846
    11  N   -0.287846
 Electronic spatial extent (au):  <R**2>=            878.5443
 Charge=             -0.0000 electrons
 Dipole moment (field-independent basis, Debye):
    X=             -0.0000    Y=             -0.0000    Z=              4.0913  Tot=              4.0913
 Quadrupole moment (field-independent basis, Debye-Ang):
   XX=            -57.8450   YY=            -57.8450   ZZ=            -43.1871
   XY=             -0.0000   XZ=              0.0000   YZ=             -0.0000
 Traceless Quadrupole moment (field-independent basis, Debye-Ang):
   XX=             -4.8860   YY=             -4.8859   ZZ=              9.7719
   XY=             -0.0000   XZ=              0.0000   YZ=             -0.0000
 Octapole moment (field-independent basis, Debye-Ang**2):
  XXX=              6.0847  YYY=            -18.4453  ZZZ=             12.7329  XYY=             -6.0846
  XXY=             18.4451  XXZ=             11.8612  XZZ=              0.0000  YZZ=              0.0000
  YYZ=             11.8611  XYZ=             -0.0000
 Hexadecapole moment (field-independent basis, Debye-Ang**3):
 XXXX=           -559.8114 YYYY=           -559.8091 ZZZZ=           -236.1682 XXXY=              0.0000
 XXXZ=             -3.3933 YYYX=             -0.0001 YYYZ=             10.2845 ZZZX=              0.0000
 ZZZY=             -0.0002 XXYY=           -186.6032 XXZZ=           -125.7568 YYZZ=           -125.7564
 XXYZ=            -10.2849 YYXZ=              3.3934 ZZXY=              0.0000
 N-N= 2.879440936237D+02 E-N=-1.401927787966D+03  KE= 3.534688296223D+02
 1\1\GINC-ARTEMIY-VIRTUALBOX\SP\RMP2\GTMP2large\C5H3N3\ARTEMIY\16-Jun-2
 022\0\\#N Geom=AllCheck Guess=TCheck SCRF=Check MP2=FrzG3/GTMP2Large\\
 Title Card Required\\0,1\C,0,-0.0000206583,0.0001109133,0.2893913675\C
 ,0,-0.0000936481,0.0004908977,1.8355588839\H,0,-0.946160604,-0.4087485
 426,2.1946590952\H,0,0.8274026608,-0.6140600598,2.1947934662\H,0,0.118
 425961,1.0245463983,2.1943568896\C,0,1.273340779,0.550811162,-0.210955
 9693\C,0,-0.159638896,-1.3781662502,-0.2105500968\C,0,-1.1136925728,0.
 8273194361,-0.2111366348\N,0,2.3062092336,0.9974978865,-0.56877184\N,0
 ,-0.2891313918,-2.496113987,-0.568045553\N,0,-2.0170263062,1.498316535
 6,-0.56908852\\Version=ES64L-G16RevA.03\State=1-A\HF=-354.472401\MP2=-
 355.8243346\RMSD=5.202e-09\PG=C01 [X(C5H3N3)]\\@


 THE MOST BEAUTIFUL EXPERIENCE WE CAN HAVE IS THE MYSTERIOUS.
 IT IS THE FUNDAMENTAL EMOTION WHICH STANDS AT AT THE CRADLE 
 OF TRUE ART AND TRUE SCIENCE.

                                    -- ALBERT EINSTEIN
 Diagonal vibrational polarizability:
        0.0000000       0.0000000       0.0000000
 
 Temperature=              298.150000 Pressure=                      1.000000
 E(ZPE)=                     0.068930 E(Thermal)=                    0.076991
 E(QCISD(T))=             -355.562220 E(Empiric)=                   -0.176301
 DE(MP2)=                   -0.333133
 G3MP2(0 K)=              -356.002723 G3MP2 Energy=               -355.994663
 G3MP2 Enthalpy=          -355.993718 G3MP2 Free Energy=          -356.035138
 1\1\GINC-ARTEMIY-VIRTUALBOX\Mixed\G3MP2\G3MP2\C5H3N3\ARTEMIY\16-Jun-20
 22\0\\# g3mp2 geom=gic\\Title Card Required\\0,1\C,0,-0.0000206583,0.0
 001109133,0.2893913675\C,0,-0.0000936481,0.0004908977,1.8355588839\H,0
 ,-0.946160604,-0.4087485426,2.1946590952\H,0,0.8274026608,-0.614060059
 8,2.1947934662\H,0,0.118425961,1.0245463983,2.1943568896\C,0,1.2733407
 79,0.550811162,-0.2109559693\C,0,-0.159638896,-1.3781662502,-0.2105500
 968\C,0,-1.1136925728,0.8273194361,-0.2111366348\N,0,2.3062092336,0.99
 74978865,-0.56877184\N,0,-0.2891313918,-2.496113987,-0.568045553\N,0,-
 2.0170263062,1.4983165356,-0.56908852\\Version=ES64L-G16RevA.03\State=
 1-A\MP2/G3Bas1=-355.491202\QCISD(T)/G3Bas1=-355.5622197\MP2/GTMP2Large
 =-355.8243346\G3MP2=-356.0027229\FreqCoord=-0.0000619596,0.000213906,0
 .5404801935,-0.000168977,0.0008970225,3.4728566216,-1.7695423125,-0.76
 52726221,4.1472390857,1.5481404268,-1.1480930581,4.1474303188,0.220829
 5947,1.9165116297,4.1467057362,2.4179905093,1.0460818234,-0.4090733326
 ,-0.3031059485,-2.6170994306,-0.4083556416,-2.1149958029,1.5710031953,
 -0.4093193633,4.2882884293,1.8545131416,-1.063598056,-0.5379164287,-4.
 6413254154,-1.0620760191,-3.7501859125,2.7863575556,-1.0643352303\PG=C
 01 [X(C5H3N3)]\NImag=0\\0.58329292,-0.00000110,0.58329509,0.00000627,-
 0.00002991,0.46710276,-0.09155092,0.00000337,0.00000236,0.68820432,-0.
 00000347,-0.09155040,-0.00001783,0.00000015,0.68820322,0.00000211,-0.0
 0001689,-0.17385889,0.00000721,-0.00004533,0.49363825,0.00259922,0.001
 65577,-0.00252491,-0.29045449,-0.09949780,0.08596155,0.30641171,0.0016
 6535,-0.00050517,-0.00109950,-0.09950199,-0.10376053,0.03722704,0.1087
 0474,0.10244661,0.03393114,0.01468955,-0.01621958,0.07960516,0.0344725
 7,-0.08888770,-0.09158538,-0.03965423,0.09824617,0.00170500,-0.0021751
 4,0.00221243,-0.23662470,0.13057258,-0.07524639,-0.02034292,0.01854650
 ,-0.01108135,0.24760208,-0.00218066,0.00039260,-0.00164268,0.13057109,
 -0.15757241,0.05583756,-0.01140064,0.01020777,-0.00682850,-0.14265101,
 0.16123606,-0.02968956,0.02203464,-0.01622382,-0.06968244,0.05170952,-
 0.08890572,0.00923224,-0.00917017,0.00565603,0.08016483,-0.05949044,0.
 09826712,-0.00116634,0.00051824,0.00031398,-0.06425934,-0.03107106,-0.
 01072574,-0.00052115,-0.02999606,-0.01254975,0.00566655,0.02642193,0.0
 1144429,0.05929135,0.00051689,0.00325079,0.00273068,-0.03107333,-0.330
 00530,-0.09299146,-0.00004112,-0.00960819,-0.00340555,-0.00353092,-0.0
 1579737,-0.00617407,0.03394660,0.34962227,-0.00424026,-0.03673546,-0.0
 1620941,-0.00993284,-0.08610990,-0.08883763,-0.00037439,0.01300817,0.0
 0564985,0.00332685,0.01258454,0.00565152,0.01143104,0.09907282,0.09818
 973,-0.24504440,-0.07077247,0.05747075,-0.00067810,-0.00087036,0.01368
 606,0.00012392,-0.00029718,-0.00120225,0.00090101,0.00039776,-0.001596
 27,0.00012897,-0.00003835,-0.00107506,1.50775385,-0.07075008,-0.112052
 15,0.02485319,-0.00086633,0.00097003,0.00591738,-0.00029729,0.00068212
 ,-0.00052166,-0.00076292,-0.00020821,0.00002511,0.00112250,0.00056223,
 -0.00117805,0.59706340,0.38472860,0.06138227,0.02655298,-0.09930213,0.
 03942678,0.01705864,-0.01877130,-0.00088092,-0.00038491,-0.00832329,0.
 00018369,0.00047504,0.00145005,0.00046952,-0.00019234,0.00145092,-0.48
 932258,-0.21153709,0.30091377,-0.08401622,-0.02220266,-0.00720156,0.00
 131120,-0.00027235,-0.00171292,0.00022699,0.00115227,0.00081927,-0.000
 01538,-0.00103913,-0.00048274,0.00079977,-0.00009328,0.00015144,-0.007
 39407,-0.04122171,-0.01318024,0.14837625,-0.02218480,-0.27311849,-0.06
 215524,-0.00027484,-0.00103765,-0.01481697,-0.00000898,0.00046596,0.00
 137027,0.00012130,0.00070721,0.00152069,-0.00009336,0.00000681,0.00129
 902,-0.01178370,-0.02337851,-0.00559727,0.18761210,1.74450812,-0.00768
 459,-0.06638275,-0.09926509,-0.00493519,-0.04267891,-0.01875459,0.0003
 1926,-0.00039596,0.00145023,-0.00040169,-0.00031054,0.00145040,0.00010
 943,0.00095296,-0.00832360,0.00155837,0.01425371,0.00475182,0.06133922
 ,0.52899928,0.30051461,-0.20660053,0.09294257,-0.05027261,-0.00019943,
 0.00114382,-0.01197102,0.00092357,-0.00066317,0.00155784,0.00028559,0.
 00039075,0.00105190,-0.00008902,0.00019160,0.00077635,-0.04233402,0.02
 104260,-0.01312426,0.00356641,0.00545720,0.00174146,1.18249932,0.09297
 022,-0.15048722,0.03734669,0.00113792,0.00049945,0.00888585,0.00049694
 ,-0.00023211,-0.00034129,0.00039060,0.00052033,-0.00078388,-0.00096977
 ,0.00078131,-0.00139446,-0.00838475,0.01155550,-0.00577767,0.03489301,
 -0.03433991,0.01423436,-0.78468297,0.70975926,-0.05371207,0.03988967,-
 0.09931638,-0.03449065,0.02560910,-0.01877810,-0.00006835,0.00050352,0
 .00145048,0.00077223,-0.00057373,-0.00832350,-0.00050256,-0.00007832,0
 .00145068,0.01144689,-0.00862092,0.00475604,0.01155371,-0.00846372,0.0
 0475310,0.42813104,-0.31816006,0.30114543,0.01036034,-0.00342423,0.004
 15082,-0.00318278,-0.00135070,-0.00358424,0.00079551,0.00029111,0.0014
 1674,0.00011438,-0.00026311,0.00057088,0.00001237,0.00024308,0.0003442
 5,-1.21669480,-0.50867449,0.41290519,-0.00195398,0.00006067,0.00101614
 ,0.00168221,-0.00044809,-0.00024440,1.20867231,-0.00344385,0.01682511,
 0.00179737,-0.00134864,-0.00064925,-0.00154965,0.00029020,0.00025008,0
 .00061271,0.00014749,0.00003128,-0.00006435,-0.00016812,0.00013326,0.0
 0045973,-0.50865623,-0.25980797,0.17847822,0.00297276,0.00204776,-0.00
 129211,-0.00335946,-0.00159073,0.00162567,0.51383195,0.24206527,0.0037
 5615,0.00162025,0.01776357,-0.00323195,-0.00139786,0.00105230,0.000193
 26,0.00008366,0.00085607,-0.00000973,-0.00026212,0.00006114,-0.0001976
 0,0.00017202,0.00006055,0.41140698,0.17783691,-0.18586703,0.00266632,0
 .00099173,-0.00052925,0.00255208,0.00126509,-0.00053018,-0.41652176,-0
 .18004465,0.16664216,0.01818368,-0.00107269,-0.00051787,-0.00011399,-0
 .00042359,0.00044988,0.00010225,-0.00014055,-0.00034115,0.00007048,0.0
 0013456,0.00022603,0.00013484,0.00009128,-0.00017785,0.00087577,0.0038
 2615,0.00152928,-0.05847880,-0.15989583,-0.05177588,-0.00026574,-0.003
 94744,-0.00162569,0.00032776,-0.00049271,-0.00039655,0.03869085,-0.001
 08954,0.00899827,-0.00448387,-0.00042201,-0.00371421,0.00388082,0.0002
 7021,0.00004343,-0.00046221,-0.00027648,0.00007490,-0.00052819,0.00009
 073,0.00091028,-0.00153286,0.00091338,-0.00078675,-0.00060122,-0.15987
 911,-1.41837388,-0.44635479,-0.00103554,0.00035802,-0.00023436,-0.0002
 0742,0.00011734,0.00007560,0.16151198,1.41240045,-0.00047429,-0.004064
 26,0.01776655,0.00040524,0.00349940,0.00105028,-0.00022225,0.00013947,
 0.00006115,0.00024790,0.00008517,0.00006090,-0.00002439,-0.00020934,0.
 00085659,-0.00018021,-0.00284199,-0.00052898,-0.05158150,-0.44472448,-
 0.18551742,-0.00047420,-0.00280666,-0.00052873,-0.00018659,0.00035828,
 0.00024524,0.05222636,0.45025856,0.16628911,0.01223723,0.00452834,-0.0
 0363965,-0.00245176,0.00177278,0.00313350,0.00013540,0.00023897,-0.000
 57026,0.00063791,-0.00038153,-0.00123917,0.00000201,-0.00021245,-0.000
 22953,0.00236188,-0.00048183,0.00061129,-0.00242217,0.00099024,-0.0012
 8652,-0.93946835,0.66854434,-0.36126016,-0.00013331,0.00022661,-0.0002
 1721,0.00047290,0.00012380,0.00026392,0.92862824,0.00450104,0.01495155
 ,0.00270110,0.00177462,-0.00138295,-0.00232836,-0.00017203,0.00001003,
 0.00006834,-0.00038200,0.00040785,0.00092113,0.00019838,0.00014392,0.0
 0052645,0.00242850,-0.00226490,0.00152561,-0.00192189,0.00251259,-0.00
 102526,0.66857259,-0.53682390,0.26850315,-0.00005878,0.00057784,-0.000
 34063,0.00040885,-0.00002784,0.00030585,-0.67534927,0.52189582,-0.0032
 7717,0.00244217,0.01776240,0.00282631,-0.00209940,0.00105311,-0.000050
 09,-0.00025710,0.00006058,-0.00016877,0.00012570,0.00085587,0.00023177
 ,0.00012260,0.00006081,-0.00219268,0.00181341,-0.00052988,-0.00237102,
 0.00157669,-0.00053021,-0.35996856,0.26753204,-0.18607885,0.00013297,-
 0.00038123,0.00024542,0.00040345,-0.00001748,0.00024532,0.36443379,-0.
 27085739,0.16685543\\0.00000586,-0.00000183,0.00002678,-0.00000273,0.0
 0000512,-0.00010441,-0.00000542,-0.00000452,-0.00000537,0.00000733,-0.
 00000221,-0.00000689,-0.00000171,0.00000680,-0.00000363,-0.00000725,0.
 00000919,0.00008014,0.00001220,0.00000743,0.00006699,-0.00001321,-0.00
 002147,0.00009418,0.00002342,0.00000066,-0.00004909,-0.00001035,-0.000
 02186,-0.00004336,-0.00000815,0.00002269,-0.00005534\\\@
 Job cpu time:       0 days  0 hours  9 minutes 57.5 seconds.
 Elapsed time:       0 days  0 hours  2 minutes 29.6 seconds.
 File lengths (MBytes):  RWF=   1913 Int=      0 D2E=      0 Chk=     14 Scr=      1
 Normal termination of Gaussian 16 at Thu Jun 16 14:42:23 2022.
