 Entering Gaussian System, Link 0=/home/artemiy/opt/gaussian/g16/g16
 Input=1,1,1,5,5,5-Hexafluoro-2,4-pentanedione_enol_G4.gjf
 Output=1,1,1,5,5,5-Hexafluoro-2,4-pentanedione_enol_G4.log
 Initial command:
 /home/artemiy/opt/gaussian/g16/l1.exe "/home/artemiy/opt/gaussian/scr/Gau-7853.inp" -scrdir="/home/artemiy/opt/gaussian/scr/"
 Entering Link 1 = /home/artemiy/opt/gaussian/g16/l1.exe PID=      7856.
  
 Copyright (c) 1988,1990,1992,1993,1995,1998,2003,2009,2016,
            Gaussian, Inc.  All Rights Reserved.
  
 This is part of the Gaussian(R) 16 program.  It is based on
 the Gaussian(R) 09 system (copyright 2009, Gaussian, Inc.),
 the Gaussian(R) 03 system (copyright 2003, Gaussian, Inc.),
 the Gaussian(R) 98 system (copyright 1998, Gaussian, Inc.),
 the Gaussian(R) 94 system (copyright 1995, Gaussian, Inc.),
 the Gaussian 92(TM) system (copyright 1992, Gaussian, Inc.),
 the Gaussian 90(TM) system (copyright 1990, Gaussian, Inc.),
 the Gaussian 88(TM) system (copyright 1988, Gaussian, Inc.),
 the Gaussian 86(TM) system (copyright 1986, Carnegie Mellon
 University), and the Gaussian 82(TM) system (copyright 1983,
 Carnegie Mellon University). Gaussian is a federally registered
 trademark of Gaussian, Inc.
  
 This software contains proprietary and confidential information,
 including trade secrets, belonging to Gaussian, Inc.
  
 This software is provided under written license and may be
 used, copied, transmitted, or stored only in accord with that
 written license.
  
 The following legend is applicable only to US Government
 contracts under FAR:
  
                    RESTRICTED RIGHTS LEGEND
  
 Use, reproduction and disclosure by the US Government is
 subject to restrictions as set forth in subparagraphs (a)
 and (c) of the Commercial Computer Software - Restricted
 Rights clause in FAR 52.227-19.
  
 Gaussian, Inc.
 340 Quinnipiac St., Bldg. 40, Wallingford CT 06492
  
  
 ---------------------------------------------------------------
 Warning -- This program may not be used in any manner that
 competes with the business of Gaussian, Inc. or will provide
 assistance to any competitor of Gaussian, Inc.  The licensee
 of this program is prohibited from giving any competitor of
 Gaussian, Inc. access to this program.  By using this program,
 the user acknowledges that Gaussian, Inc. is engaged in the
 business of creating and licensing software in the field of
 computational chemistry and represents and warrants to the
 licensee that it is not a competitor of Gaussian, Inc. and that
 it will not use this program in any manner prohibited above.
 ---------------------------------------------------------------
  

 Cite this work as:
 Gaussian 16, Revision A.03,
 M. J. Frisch, G. W. Trucks, H. B. Schlegel, G. E. Scuseria, 
 M. A. Robb, J. R. Cheeseman, G. Scalmani, V. Barone, 
 G. A. Petersson, H. Nakatsuji, X. Li, M. Caricato, A. V. Marenich, 
 J. Bloino, B. G. Janesko, R. Gomperts, B. Mennucci, H. P. Hratchian, 
 J. V. Ortiz, A. F. Izmaylov, J. L. Sonnenberg, D. Williams-Young, 
 F. Ding, F. Lipparini, F. Egidi, J. Goings, B. Peng, A. Petrone, 
 T. Henderson, D. Ranasinghe, V. G. Zakrzewski, J. Gao, N. Rega, 
 G. Zheng, W. Liang, M. Hada, M. Ehara, K. Toyota, R. Fukuda, 
 J. Hasegawa, M. Ishida, T. Nakajima, Y. Honda, O. Kitao, H. Nakai, 
 T. Vreven, K. Throssell, J. A. Montgomery, Jr., J. E. Peralta, 
 F. Ogliaro, M. J. Bearpark, J. J. Heyd, E. N. Brothers, K. N. Kudin, 
 V. N. Staroverov, T. A. Keith, R. Kobayashi, J. Normand, 
 K. Raghavachari, A. P. Rendell, J. C. Burant, S. S. Iyengar, 
 J. Tomasi, M. Cossi, J. M. Millam, M. Klene, C. Adamo, R. Cammi, 
 J. W. Ochterski, R. L. Martin, K. Morokuma, O. Farkas, 
 J. B. Foresman, and D. J. Fox, Gaussian, Inc., Wallingford CT, 2016.
 
 ******************************************
 Gaussian 16:  ES64L-G16RevA.03 25-Dec-2016
                23-Nov-2021 
 ******************************************
 %mem=47GB
 %nprocshared=7
 Will use up to    7 processors via shared memory.
 -------------
 # g4 geom=gic
 -------------
 1/18=20,19=15,26=3,38=1,145=2/1,3;
 2/9=110,12=2,17=6,18=5,40=1/2;
 3/5=35,7=104,11=2,25=1,30=1,71=1,74=-5/1,2,3;
 4//1;
 5/5=2,38=5/2;
 6/7=2,8=2,9=2,10=2,28=1/1;
 7//1,2,3,16;
 1/18=20,19=15,26=3,145=2/3(2);
 2/9=110/2;
 99//99;
 2/9=110/2;
 3/5=35,7=104,11=2,25=1,30=1,71=1,74=-5/1,2,3;
 4/5=5,16=3,69=1/1;
 5/5=2,38=5/2;
 7//1,2,3,16;
 1/18=20,19=15,26=3,145=2/3(-5);
 2/9=110/2;
 6/7=2,8=2,9=2,10=2,19=2,28=1/1;
 99/9=1/99;
 -------------------
 CAS 1522-22-1
 -------------------
 Symbolic Z-matrix:
 Charge =  0 Multiplicity = 1
 C                     2.49858   0.29125  -0.00004 
 F                     3.22811  -0.01159  -1.07499 
 F                     3.22528  -0.00739   1.07805 
 F                     2.31641   1.61333  -0.00282 
 C                     1.17139  -0.46894  -0.00019 
 C                    -0.01751   0.18922  -0.00028 
 C                    -1.23024  -0.58454  -0.00021 
 O                    -1.28949  -1.79999  -0.00009 
 C                    -2.52467   0.26643  -0.00004 
 F                    -2.56747   1.06261   1.07854 
 F                    -2.56561   1.06631  -1.07594 
 F                    -3.6242   -0.47581  -0.00227 
 H                    -0.06459   1.26407  -0.00046 
 O                     1.32799  -1.76634   0. 
 H                     0.43802  -2.21163   0.00005 
 
 Initializing the GIC definitions file.

 GradGradGradGradGradGradGradGradGradGradGradGradGradGradGradGradGradGrad
 Berny optimization.
 Initialization pass.
                           ----------------------------
                           !    Initial Parameters    !
                           ! (Angstroms and Degrees)  !
 --------------------------                            --------------------------
 ! Name  Definition              Value          Derivative Info.                !
 --------------------------------------------------------------------------------
 ! R1    R(1,2)                  1.334          estimate D2E/DX2                !
 ! R2    R(1,3)                  1.334          estimate D2E/DX2                !
 ! R3    R(1,4)                  1.3346         estimate D2E/DX2                !
 ! R4    R(1,5)                  1.5295         estimate D2E/DX2                !
 ! R5    R(5,6)                  1.3589         estimate D2E/DX2                !
 ! R6    R(5,14)                 1.3068         estimate D2E/DX2                !
 ! R7    R(6,7)                  1.4385         estimate D2E/DX2                !
 ! R8    R(6,13)                 1.0759         estimate D2E/DX2                !
 ! R9    R(7,8)                  1.2169         estimate D2E/DX2                !
 ! R10   R(7,9)                  1.5491         estimate D2E/DX2                !
 ! R11   R(9,10)                 1.3413         estimate D2E/DX2                !
 ! R12   R(9,11)                 1.3413         estimate D2E/DX2                !
 ! R13   R(9,12)                 1.3266         estimate D2E/DX2                !
 ! R14   R(14,15)                0.9952         estimate D2E/DX2                !
 ! A1    A(2,1,3)              107.6079         estimate D2E/DX2                !
 ! A2    A(2,1,4)              107.33           estimate D2E/DX2                !
 ! A3    A(2,1,5)              111.2013         estimate D2E/DX2                !
 ! A4    A(3,1,4)              107.3267         estimate D2E/DX2                !
 ! A5    A(3,1,5)              111.1928         estimate D2E/DX2                !
 ! A6    A(4,1,5)              111.9576         estimate D2E/DX2                !
 ! A7    A(1,5,6)              121.2286         estimate D2E/DX2                !
 ! A8    A(1,5,14)             112.921          estimate D2E/DX2                !
 ! A9    A(6,5,14)             125.8503         estimate D2E/DX2                !
 ! A10   A(5,6,7)              118.4928         estimate D2E/DX2                !
 ! A11   A(5,6,13)             121.4765         estimate D2E/DX2                !
 ! A12   A(7,6,13)             120.0307         estimate D2E/DX2                !
 ! A13   A(6,7,8)              125.3297         estimate D2E/DX2                !
 ! A14   A(6,7,9)              114.1395         estimate D2E/DX2                !
 ! A15   A(8,7,9)              120.5309         estimate D2E/DX2                !
 ! A16   A(7,9,10)             110.661          estimate D2E/DX2                !
 ! A17   A(7,9,11)             110.6716         estimate D2E/DX2                !
 ! A18   A(7,9,12)             112.6569         estimate D2E/DX2                !
 ! A19   A(10,9,11)            106.8622         estimate D2E/DX2                !
 ! A20   A(10,9,12)            107.8799         estimate D2E/DX2                !
 ! A21   A(11,9,12)            107.879          estimate D2E/DX2                !
 ! A22   A(5,14,15)            109.6987         estimate D2E/DX2                !
 ! D1    D(2,1,5,6)           -120.1875         estimate D2E/DX2                !
 ! D2    D(2,1,5,14)            59.8227         estimate D2E/DX2                !
 ! D3    D(3,1,5,6)            119.9185         estimate D2E/DX2                !
 ! D4    D(3,1,5,14)           -60.0713         estimate D2E/DX2                !
 ! D5    D(4,1,5,6)             -0.1295         estimate D2E/DX2                !
 ! D6    D(4,1,5,14)           179.8807         estimate D2E/DX2                !
 ! D7    D(1,5,6,7)           -179.9906         estimate D2E/DX2                !
 ! D8    D(1,5,6,13)             0.0125         estimate D2E/DX2                !
 ! D9    D(14,5,6,7)            -0.0022         estimate D2E/DX2                !
 ! D10   D(14,5,6,13)         -179.9991         estimate D2E/DX2                !
 ! D11   D(1,5,14,15)          179.9906         estimate D2E/DX2                !
 ! D12   D(6,5,14,15)            0.0014         estimate D2E/DX2                !
 ! D13   D(5,6,7,8)             -0.0011         estimate D2E/DX2                !
 ! D14   D(5,6,7,9)            179.988          estimate D2E/DX2                !
 ! D15   D(13,6,7,8)           179.9958         estimate D2E/DX2                !
 ! D16   D(13,6,7,9)            -0.0151         estimate D2E/DX2                !
 ! D17   D(6,7,9,10)           -59.2455         estimate D2E/DX2                !
 ! D18   D(6,7,9,11)            59.0239         estimate D2E/DX2                !
 ! D19   D(6,7,9,12)           179.8924         estimate D2E/DX2                !
 ! D20   D(8,7,9,10)           120.7442         estimate D2E/DX2                !
 ! D21   D(8,7,9,11)          -120.9864         estimate D2E/DX2                !
 ! D22   D(8,7,9,12)            -0.1178         estimate D2E/DX2                !
 --------------------------------------------------------------------------------
 Trust Radius=3.00D-01 FncErr=1.00D-07 GrdErr=1.00D-06 EigMax=2.50D+02 EigMin=1.00D-04
 Number of steps in this run=     68 maximum allowed number of steps=    100.
 GradGradGradGradGradGradGradGradGradGradGradGradGradGradGradGradGradGrad

                          Input orientation:                          
 ---------------------------------------------------------------------
 Center     Atomic      Atomic             Coordinates (Angstroms)
 Number     Number       Type             X           Y           Z
 ---------------------------------------------------------------------
      1          6           0        2.498584    0.291254   -0.000042
      2          9           0        3.228114   -0.011587   -1.074986
      3          9           0        3.225284   -0.007395    1.078054
      4          9           0        2.316410    1.613327   -0.002819
      5          6           0        1.171392   -0.468936   -0.000189
      6          6           0       -0.017506    0.189217   -0.000284
      7          6           0       -1.230239   -0.584541   -0.000214
      8          8           0       -1.289485   -1.799989   -0.000094
      9          6           0       -2.524667    0.266434   -0.000037
     10          9           0       -2.567470    1.062612    1.078545
     11          9           0       -2.565607    1.066307   -1.075937
     12          9           0       -3.624203   -0.475814   -0.002275
     13          1           0       -0.064592    1.264072   -0.000459
     14          8           0        1.327985   -1.766336    0.000004
     15          1           0        0.438019   -2.211626    0.000050
 ---------------------------------------------------------------------
                    Distance matrix (angstroms):
                    1          2          3          4          5
     1  C    0.000000
     2  F    1.333954   0.000000
     3  F    1.334007   2.153047   0.000000
     4  F    1.334568   2.149672   2.149669   0.000000
     5  C    1.529486   2.365261   2.365186   2.376319   0.000000
     6  C    2.518158   3.424814   3.423033   2.734092   1.358912
     7  C    3.830292   4.621723   4.620330   4.172452   2.404412
     8  O    4.326981   4.976191   4.975836   4.965200   2.797789
     9  C    5.023312   5.858950   5.856552   5.024953   3.768503
    10  F    5.236721   6.275380   5.890748   5.032387   4.181912
    11  F    5.234911   5.893137   6.271120   5.028410   4.180833
    12  F    6.170650   6.951292   6.949964   6.297253   4.795600
    13  H    2.741577   3.691047   3.688239   2.406482   2.128608
    14  O    2.367272   2.800935   2.802822   3.521237   1.306817
    15  H    3.241965   3.712211   3.713432   4.261294   1.890716
                    6          7          8          9         10
     6  C    0.000000
     7  C    1.438549   0.000000
     8  O    2.361117   1.216891   0.000000
     9  C    2.508350   1.549097   2.407442   0.000000
    10  F    2.903275   2.380130   3.315297   1.341294   0.000000
    11  F    2.901575   2.380271   3.316863   1.341281   2.154486
    12  F    3.667497   2.396433   2.684092   1.326619   2.156759
    13  H    1.075886   2.185430   3.299824   2.654666   2.732990
    14  O    2.373717   2.818005   2.617687   4.356040   4.933637
    15  H    2.443676   2.330341   1.775870   3.862420   4.573483
                   11         12         13         14         15
    11  F    0.000000
    12  F    2.156737   0.000000
    13  H    2.729623   3.962075   0.000000
    14  O    4.933719   5.117580   3.335063   0.000000
    15  H    4.574316   4.417544   3.511851   0.995150   0.000000
 Stoichiometry    C5H2F6O2
 Framework group  C1[X(C5H2F6O2)]
 Deg. of freedom    39
 Full point group                 C1      NOp   1
 Largest Abelian subgroup         C1      NOp   1
 Largest concise Abelian subgroup C1      NOp   1
                         Standard orientation:                         
 ---------------------------------------------------------------------
 Center     Atomic      Atomic             Coordinates (Angstroms)
 Number     Number       Type             X           Y           Z
 ---------------------------------------------------------------------
      1          6           0       -2.496510   -0.314253   -0.000037
      2          9           0       -3.226343   -0.012145   -1.074982
      3          9           0       -3.223509   -0.016334    1.078059
      4          9           0       -2.313010   -1.636143   -0.002814
      5          6           0       -1.170081    0.447267   -0.000184
      6          6           0        0.019477   -0.209693   -0.000279
      7          6           0        1.231433    0.565281   -0.000209
      8          8           0        1.289460    1.780788   -0.000089
      9          6           0        2.526714   -0.284396   -0.000032
     10          9           0        2.570315   -1.080530    1.078550
     11          9           0        2.568457   -1.084227   -1.075932
     12          9           0        3.625505    0.458955   -0.002270
     13          1           0        0.067641   -1.284501   -0.000455
     14          8           0       -1.327975    1.744510    0.000009
     15          1           0       -0.438456    2.190692    0.000055
 ---------------------------------------------------------------------
 Rotational constants (GHZ):           1.6721101           0.3809748           0.3479312
 Standard basis: GTBas3 (6D, 7F)
 There are   413 symmetry adapted cartesian basis functions of A   symmetry.
 There are   374 symmetry adapted basis functions of A   symmetry.
   374 basis functions,   586 primitive gaussians,   413 cartesian basis functions
    51 alpha electrons       51 beta electrons
       nuclear repulsion energy       884.4090484079 Hartrees.
 NAtoms=   15 NActive=   15 NUniq=   15 SFac= 1.00D+00 NAtFMM=   60 NAOKFM=F Big=F
 Integral buffers will be    131072 words long.
 Raffenetti 2 integral format.
 Two-electron integral symmetry is turned on.
 One-electron integrals computed using PRISM.
 NBasis=   374 RedAO= T EigKep=  3.10D-04  NBF=   374
 NBsUse=   374 1.00D-06 EigRej= -1.00D+00 NBFU=   374
 ExpMin= 1.61D-01 ExpMax= 7.00D+03 ExpMxC= 1.05D+03 IAcc=3 IRadAn=         5 AccDes= 0.00D+00
 Harris functional with IExCor=  402 and IRadAn=       5 diagonalized for initial guess.
 HarFok:  IExCor=  402 AccDes= 0.00D+00 IRadAn=         5 IDoV= 1 UseB2=F ITyADJ=14
 ICtDFT=  3500011 ScaDFX=  1.000000  1.000000  1.000000  1.000000
 FoFCou: FMM=F IPFlag=           0 FMFlag=      100000 FMFlg1=           0
         NFxFlg=           0 DoJE=T BraDBF=F KetDBF=T FulRan=T
         wScrn=  0.000000 ICntrl=       500 IOpCl=  0 I1Cent=   200000004 NGrid=           0
         NMat0=    1 NMatS0=      1 NMatT0=    0 NMatD0=    1 NMtDS0=    0 NMtDT0=    0
 Petite list used in FoFCou.
 Requested convergence on RMS density matrix=1.00D-08 within 128 cycles.
 Requested convergence on MAX density matrix=1.00D-06.
 Requested convergence on             energy=1.00D-06.
 No special actions if energy rises.
 Integral accuracy reduced to 1.0D-05 until final iterations.
 Initial convergence to 1.0D-05 achieved.  Increase integral accuracy.
 SCF Done:  E(RB3LYP) =  -941.272452306     A.U. after   14 cycles
            NFock= 14  Conv=0.51D-08     -V/T= 2.0058

 **********************************************************************

            Population analysis using the SCF density.

 **********************************************************************

 Orbital symmetries:
       Occupied  (A) (A) (A) (A) (A) (A) (A) (A) (A) (A) (A) (A)
                 (A) (A) (A) (A) (A) (A) (A) (A) (A) (A) (A) (A)
                 (A) (A) (A) (A) (A) (A) (A) (A) (A) (A) (A) (A)
                 (A) (A) (A) (A) (A) (A) (A) (A) (A) (A) (A) (A)
                 (A) (A) (A)
       Virtual   (A) (A) (A) (A) (A) (A) (A) (A) (A) (A) (A) (A)
                 (A) (A) (A) (A) (A) (A) (A) (A) (A) (A) (A) (A)
                 (A) (A) (A) (A) (A) (A) (A) (A) (A) (A) (A) (A)
                 (A) (A) (A) (A) (A) (A) (A) (A) (A) (A) (A) (A)
                 (A) (A) (A) (A) (A) (A) (A) (A) (A) (A) (A) (A)
                 (A) (A) (A) (A) (A) (A) (A) (A) (A) (A) (A) (A)
                 (A) (A) (A) (A) (A) (A) (A) (A) (A) (A) (A) (A)
                 (A) (A) (A) (A) (A) (A) (A) (A) (A) (A) (A) (A)
                 (A) (A) (A) (A) (A) (A) (A) (A) (A) (A) (A) (A)
                 (A) (A) (A) (A) (A) (A) (A) (A) (A) (A) (A) (A)
                 (A) (A) (A) (A) (A) (A) (A) (A) (A) (A) (A) (A)
                 (A) (A) (A) (A) (A) (A) (A) (A) (A) (A) (A) (A)
                 (A) (A) (A) (A) (A) (A) (A) (A) (A) (A) (A) (A)
                 (A) (A) (A) (A) (A) (A) (A) (A) (A) (A) (A) (A)
                 (A) (A) (A) (A) (A) (A) (A) (A) (A) (A) (A) (A)
                 (A) (A) (A) (A) (A) (A) (A) (A) (A) (A) (A) (A)
                 (A) (A) (A) (A) (A) (A) (A) (A) (A) (A) (A) (A)
                 (A) (A) (A) (A) (A) (A) (A) (A) (A) (A) (A) (A)
                 (A) (A) (A) (A) (A) (A) (A) (A) (A) (A) (A) (A)
                 (A) (A) (A) (A) (A) (A) (A) (A) (A) (A) (A) (A)
                 (A) (A) (A) (A) (A) (A) (A) (A) (A) (A) (A) (A)
                 (A) (A) (A) (A) (A) (A) (A) (A) (A) (A) (A) (A)
                 (A) (A) (A) (A) (A) (A) (A) (A) (A) (A) (A) (A)
                 (A) (A) (A) (A) (A) (A) (A) (A) (A) (A) (A) (A)
                 (A) (A) (A) (A) (A) (A) (A) (A) (A) (A) (A) (A)
                 (A) (A) (A) (A) (A) (A) (A) (A) (A) (A) (A) (A)
                 (A) (A) (A) (A) (A) (A) (A) (A) (A) (A) (A)
 The electronic state is 1-A.
 Alpha  occ. eigenvalues --  -24.74711 -24.74202 -24.74201 -24.73939 -24.73937
 Alpha  occ. eigenvalues --  -24.73729 -19.22398 -19.18260 -10.45106 -10.43816
 Alpha  occ. eigenvalues --  -10.31797 -10.31618 -10.22296  -1.33587  -1.32831
 Alpha  occ. eigenvalues --   -1.24491  -1.24184  -1.23803  -1.23650  -1.12932
 Alpha  occ. eigenvalues --   -1.08849  -0.83874  -0.77509  -0.73457  -0.67671
 Alpha  occ. eigenvalues --   -0.65245  -0.61397  -0.60945  -0.60352  -0.60330
 Alpha  occ. eigenvalues --   -0.59412  -0.55133  -0.52647  -0.49682  -0.48796
 Alpha  occ. eigenvalues --   -0.48051  -0.47960  -0.47504  -0.46710  -0.44809
 Alpha  occ. eigenvalues --   -0.44752  -0.43858  -0.43346  -0.42868  -0.42493
 Alpha  occ. eigenvalues --   -0.42197  -0.41772  -0.41590  -0.39957  -0.30221
 Alpha  occ. eigenvalues --   -0.28898
 Alpha virt. eigenvalues --   -0.09979   0.02184   0.07698   0.11480   0.13399
 Alpha virt. eigenvalues --    0.14801   0.19123   0.19549   0.20605   0.21290
 Alpha virt. eigenvalues --    0.21740   0.22891   0.25067   0.28048   0.31731
 Alpha virt. eigenvalues --    0.35384   0.37717   0.38008   0.40213   0.40694
 Alpha virt. eigenvalues --    0.40996   0.42877   0.45622   0.47110   0.49902
 Alpha virt. eigenvalues --    0.51491   0.54539   0.54628   0.55072   0.57402
 Alpha virt. eigenvalues --    0.61628   0.62119   0.64363   0.64668   0.66163
 Alpha virt. eigenvalues --    0.67663   0.69631   0.71735   0.72530   0.73398
 Alpha virt. eigenvalues --    0.75886   0.80479   0.82389   0.82968   0.83375
 Alpha virt. eigenvalues --    0.84109   0.85583   0.85987   0.87075   0.87702
 Alpha virt. eigenvalues --    0.88711   0.89815   0.91573   0.91773   0.92833
 Alpha virt. eigenvalues --    0.93543   0.95358   0.96214   0.96348   0.96366
 Alpha virt. eigenvalues --    0.98136   0.98959   0.99585   0.99875   1.01943
 Alpha virt. eigenvalues --    1.02483   1.04441   1.04571   1.04972   1.05465
 Alpha virt. eigenvalues --    1.08821   1.09731   1.09765   1.11866   1.15608
 Alpha virt. eigenvalues --    1.16075   1.16595   1.17204   1.18373   1.19980
 Alpha virt. eigenvalues --    1.20275   1.24654   1.27938   1.27987   1.30963
 Alpha virt. eigenvalues --    1.33590   1.33738   1.35272   1.36637   1.38835
 Alpha virt. eigenvalues --    1.39426   1.40770   1.42541   1.44112   1.45210
 Alpha virt. eigenvalues --    1.47964   1.50164   1.53235   1.53887   1.54844
 Alpha virt. eigenvalues --    1.54953   1.55492   1.57652   1.62246   1.62942
 Alpha virt. eigenvalues --    1.66415   1.67300   1.67924   1.69717   1.73777
 Alpha virt. eigenvalues --    1.76232   1.77666   1.77758   1.79540   1.79695
 Alpha virt. eigenvalues --    1.82530   1.85655   1.89377   1.91221   1.93723
 Alpha virt. eigenvalues --    1.95209   1.98785   2.01302   2.02522   2.07357
 Alpha virt. eigenvalues --    2.12050   2.17346   2.20909   2.21446   2.24019
 Alpha virt. eigenvalues --    2.25432   2.28689   2.33504   2.35751   2.38445
 Alpha virt. eigenvalues --    2.42272   2.48136   2.51713   2.69712   2.74526
 Alpha virt. eigenvalues --    2.83477   2.84579   2.86879   2.88752   2.91228
 Alpha virt. eigenvalues --    2.93165   3.01400   3.04423   3.06417   3.07140
 Alpha virt. eigenvalues --    3.07593   3.12437   3.12525   3.13995   3.16859
 Alpha virt. eigenvalues --    3.17644   3.18800   3.23610   3.24762   3.26333
 Alpha virt. eigenvalues --    3.30291   3.31929   3.38608   3.40836   3.45344
 Alpha virt. eigenvalues --    3.49683   3.50336   3.53057   3.53148   3.65858
 Alpha virt. eigenvalues --    3.73246   3.73961   3.75165   3.76863   3.79302
 Alpha virt. eigenvalues --    3.83839   3.88152   3.91000   3.91900   3.95016
 Alpha virt. eigenvalues --    3.99666   4.01393   4.04084   4.04883   4.05964
 Alpha virt. eigenvalues --    4.11038   4.11214   4.11589   4.13072   4.14704
 Alpha virt. eigenvalues --    4.14997   4.16396   4.16571   4.18073   4.19117
 Alpha virt. eigenvalues --    4.19578   4.20902   4.21417   4.21976   4.22919
 Alpha virt. eigenvalues --    4.23171   4.23701   4.24339   4.25008   4.29075
 Alpha virt. eigenvalues --    4.32079   4.32763   4.34762   4.35283   4.37224
 Alpha virt. eigenvalues --    4.39716   4.41026   4.43217   4.44172   4.47888
 Alpha virt. eigenvalues --    4.48245   4.52356   4.53089   4.55158   4.55948
 Alpha virt. eigenvalues --    4.56536   4.57140   4.59607   4.59654   4.63714
 Alpha virt. eigenvalues --    4.63869   4.65911   4.68642   4.69186   4.71208
 Alpha virt. eigenvalues --    4.73411   4.73598   4.74265   4.77978   4.81054
 Alpha virt. eigenvalues --    4.81139   4.84691   4.86740   4.89072   4.91166
 Alpha virt. eigenvalues --    5.00675   5.03074   5.04272   5.08030   5.10853
 Alpha virt. eigenvalues --    5.12897   5.13552   5.22916   5.26483   5.42635
 Alpha virt. eigenvalues --    5.43262   5.49038   5.49225   5.55840   5.61436
 Alpha virt. eigenvalues --    5.67738   5.77870   5.87475   5.88227   5.99082
 Alpha virt. eigenvalues --    6.17036   6.27889   6.30711   6.42359   6.54091
 Alpha virt. eigenvalues --    6.58532   6.59064   6.59242   6.59369   6.59654
 Alpha virt. eigenvalues --    6.59727   6.59767   6.59968   6.60365   6.61080
 Alpha virt. eigenvalues --    6.61157   6.61514   6.61860   6.63367   6.65794
 Alpha virt. eigenvalues --    6.65881   6.72005   6.73108   6.74130   6.76963
 Alpha virt. eigenvalues --    6.77501   6.78954   6.81114   6.90397   6.94149
 Alpha virt. eigenvalues --    6.94490   7.12443   7.16515   7.17898   7.19710
 Alpha virt. eigenvalues --    7.21043   7.23578   7.28056   7.38801   7.39186
 Alpha virt. eigenvalues --    7.41341   7.41553   7.42132   7.42671   7.47008
 Alpha virt. eigenvalues --    7.47673   7.51803   7.52302   7.93072   8.13217
 Alpha virt. eigenvalues --    9.53098   9.61466   9.62489   9.63561   9.69767
 Alpha virt. eigenvalues --    9.77633  10.31783  11.09943  11.55711  12.21222
 Alpha virt. eigenvalues --   12.37602  13.34102  13.53426
          Condensed to atoms (all electrons):
               1          2          3          4          5          6
     1  C    4.203201   0.437657   0.437590   0.470613   0.200569  -0.008890
     2  F    0.437657   8.736885  -0.047623  -0.042402  -0.024535   0.001624
     3  F    0.437590  -0.047623   8.737081  -0.042436  -0.024551   0.001607
     4  F    0.470613  -0.042402  -0.042436   8.714701  -0.064241   0.012980
     5  C    0.200569  -0.024535  -0.024551  -0.064241   5.048443   0.271411
     6  C   -0.008890   0.001624   0.001607   0.012980   0.271411   5.681644
     7  C    0.002308  -0.000079  -0.000079   0.000768   0.010274   0.136177
     8  O    0.000228   0.000000   0.000000  -0.000000  -0.003443  -0.070004
     9  C   -0.000081   0.000000   0.000000  -0.000007  -0.001994  -0.030748
    10  F   -0.000002   0.000000   0.000000   0.000000   0.000447   0.008217
    11  F   -0.000002   0.000000   0.000000   0.000000   0.000452   0.008252
    12  F    0.000000   0.000000   0.000000   0.000000  -0.000074   0.002903
    13  H   -0.002108   0.000200   0.000200   0.009327  -0.033216   0.366695
    14  O   -0.007854  -0.002704  -0.002702   0.000288   0.450280  -0.041235
    15  H    0.001783  -0.000096  -0.000096  -0.000020  -0.043285  -0.014864
               7          8          9         10         11         12
     1  C    0.002308   0.000228  -0.000081  -0.000002  -0.000002   0.000000
     2  F   -0.000079   0.000000   0.000000   0.000000   0.000000   0.000000
     3  F   -0.000079   0.000000   0.000000   0.000000   0.000000   0.000000
     4  F    0.000768  -0.000000  -0.000007   0.000000   0.000000   0.000000
     5  C    0.010274  -0.003443  -0.001994   0.000447   0.000452  -0.000074
     6  C    0.136177  -0.070004  -0.030748   0.008217   0.008252   0.002903
     7  C    4.830282   0.679800   0.256521  -0.045329  -0.045416  -0.029406
     8  O    0.679800   7.753793  -0.026412  -0.000110  -0.000103  -0.001462
     9  C    0.256521  -0.026412   4.269658   0.413755   0.413750   0.473107
    10  F   -0.045329  -0.000110   0.413755   8.780296  -0.046111  -0.040778
    11  F   -0.045416  -0.000103   0.413750  -0.046111   8.780260  -0.040749
    12  F   -0.029406  -0.001462   0.473107  -0.040778  -0.040749   8.684510
    13  H   -0.029849   0.002074   0.006265   0.001642   0.001684   0.000136
    14  O   -0.005887  -0.025915   0.000108  -0.000000  -0.000000   0.000000
    15  H   -0.001135   0.063006   0.000623  -0.000010  -0.000010  -0.000001
              13         14         15
     1  C   -0.002108  -0.007854   0.001783
     2  F    0.000200  -0.002704  -0.000096
     3  F    0.000200  -0.002702  -0.000096
     4  F    0.009327   0.000288  -0.000020
     5  C   -0.033216   0.450280  -0.043285
     6  C    0.366695  -0.041235  -0.014864
     7  C   -0.029849  -0.005887  -0.001135
     8  O    0.002074  -0.025915   0.063006
     9  C    0.006265   0.000108   0.000623
    10  F    0.001642  -0.000000  -0.000010
    11  F    0.001684  -0.000000  -0.000010
    12  F    0.000136   0.000000  -0.000001
    13  H    0.523907   0.001901  -0.000191
    14  O    0.001901   7.714670   0.293848
    15  H   -0.000191   0.293848   0.355030
 Mulliken charges:
               1
     1  C    0.264988
     2  F   -0.058926
     3  F   -0.058991
     4  F   -0.059569
     5  C    0.213463
     6  C   -0.325769
     7  C    0.241051
     8  O   -0.371452
     9  C    0.225457
    10  F   -0.072015
    11  F   -0.072006
    12  F   -0.048186
    13  H    0.151334
    14  O   -0.374796
    15  H    0.345418
 Sum of Mulliken charges =  -0.00000
 Mulliken charges with hydrogens summed into heavy atoms:
               1
     1  C    0.264988
     2  F   -0.058926
     3  F   -0.058991
     4  F   -0.059569
     5  C    0.213463
     6  C   -0.174435
     7  C    0.241051
     8  O   -0.371452
     9  C    0.225457
    10  F   -0.072015
    11  F   -0.072006
    12  F   -0.048186
    14  O   -0.029378
 Electronic spatial extent (au):  <R**2>=           2809.6960
 Charge=             -0.0000 electrons
 Dipole moment (field-independent basis, Debye):
    X=             -0.4022    Y=             -0.3304    Z=             -0.0011  Tot=              0.5205
 Quadrupole moment (field-independent basis, Debye-Ang):
   XX=            -76.0357   YY=            -68.7082   ZZ=            -67.7322
   XY=             -0.9075   XZ=              0.0002   YZ=              0.0003
 Traceless Quadrupole moment (field-independent basis, Debye-Ang):
   XX=             -5.2103   YY=              2.1172   ZZ=              3.0932
   XY=             -0.9075   XZ=              0.0002   YZ=              0.0003
 Octapole moment (field-independent basis, Debye-Ang**2):
  XXX=             -1.4799  YYY=            -10.7611  ZZZ=             -0.0081  XYY=             -4.0544
  XXY=             -8.8635  XXZ=              0.0002  XZZ=              1.0630  YZZ=             -1.6834
  YYZ=              0.0104  XYZ=             -0.0005
 Hexadecapole moment (field-independent basis, Debye-Ang**3):
 XXXX=          -2225.2094 YYYY=           -426.7564 ZZZZ=           -176.9446 XXXY=             -1.4026
 XXXZ=              0.0035 YYYX=            -11.8314 YYYZ=             -0.0057 ZZZX=              0.0021
 ZZZY=              0.0040 XXYY=           -453.3404 XXZZ=           -397.2833 YYZZ=           -102.1087
 XXYZ=              0.0210 YYXZ=              0.0001 ZZXY=              4.0072
 N-N= 8.844090484079D+02 E-N=-3.996659913386D+03  KE= 9.358625523087D+02
 Calling FoFJK, ICntrl=      2127 FMM=F ISym2X=0 I1Cent= 0 IOpClX= 0 NMat=1 NMatS=1 NMatT=0.
 ***** Axes restored to original set *****
 -------------------------------------------------------------------
 Center     Atomic                   Forces (Hartrees/Bohr)
 Number     Number              X              Y              Z
 -------------------------------------------------------------------
      1        6           0.007485794    0.003450510    0.000007940
      2        9          -0.002272712   -0.004171420   -0.002186258
      3        9          -0.002273101   -0.004162410    0.002189981
      4        9          -0.005788672    0.000196033   -0.000003703
      5        6          -0.001165757    0.011409228   -0.000002661
      6        6           0.001978673   -0.003666742   -0.000005083
      7        6          -0.000596105    0.016281049    0.000001559
      8        8          -0.001980960   -0.014042261    0.000000075
      9        6          -0.013950828    0.002565775    0.000005281
     10        9           0.004363409   -0.001477511    0.001518749
     11        9           0.004369437   -0.001467618   -0.001521369
     12        9           0.003603820   -0.003614292   -0.000000124
     13        1           0.002003733    0.001846985   -0.000006358
     14        8           0.002681069   -0.011707448    0.000000704
     15        1           0.001542198    0.008560123    0.000001267
 -------------------------------------------------------------------
 Cartesian Forces:  Max     0.016281049 RMS     0.005319217

 GradGradGradGradGradGradGradGradGradGradGradGradGradGradGradGradGradGrad
 Berny optimization.
 FormGI is forming the generalized inverse of G from B-inverse, IUseBI=4.
 Internal  Forces:  Max     0.014122271 RMS     0.004332183
 Search for a local minimum.
 Step number   1 out of a maximum of   68
 All quantities printed in internal units (Hartrees-Bohrs-Radians)
 Mixed Optimization -- RFO/linear search
 Second derivative matrix not updated -- first step.
 ITU=  0
     Eigenvalues ---    0.00230   0.00376   0.00805   0.01579   0.01670
     Eigenvalues ---    0.02113   0.02632   0.02924   0.10394   0.10627
     Eigenvalues ---    0.10755   0.10884   0.16000   0.16000   0.22000
     Eigenvalues ---    0.25000   0.25000   0.25000   0.25000   0.25000
     Eigenvalues ---    0.25000   0.25000   0.25000   0.25000   0.25000
     Eigenvalues ---    0.27728   0.29471   0.36496   0.39785   0.48551
     Eigenvalues ---    0.53168   0.56916   0.56919   0.58440   0.58569
     Eigenvalues ---    0.58582   0.60311   0.65335   0.96774
 RFO step:  Lambda=-3.96511268D-03 EMin= 2.30000000D-03
 Linear search not attempted -- first point.
 Iteration  1 RMS(Cart)=  0.05438878 RMS(Int)=  0.00161897
 Iteration  2 RMS(Cart)=  0.00183730 RMS(Int)=  0.00012425
 Iteration  3 RMS(Cart)=  0.00000047 RMS(Int)=  0.00012425
 Variable       Old X    -DE/DX   Delta X   Delta X   Delta X     New X
                                 (Linear)    (Quad)   (Total)
    R1        2.52081   0.00147   0.00000   0.00249   0.00249   2.52329
    R2        2.52091   0.00146   0.00000   0.00248   0.00248   2.52339
    R3        2.52197   0.00098   0.00000   0.00167   0.00167   2.52364
    R4        2.89031  -0.00480   0.00000  -0.01607  -0.01607   2.87423
    R5        2.56797  -0.00155   0.00000  -0.00289  -0.00289   2.56508
    R6        2.46953   0.00363   0.00000   0.00552   0.00552   2.47505
    R7        2.71846   0.00448   0.00000   0.01115   0.01115   2.72961
    R8        2.03313   0.00176   0.00000   0.00476   0.00476   2.03789
    R9        2.29959   0.01412   0.00000   0.01453   0.01453   2.31412
   R10        2.92737  -0.00085   0.00000  -0.00301  -0.00301   2.92436
   R11        2.53468   0.00020   0.00000   0.00036   0.00036   2.53504
   R12        2.53465   0.00021   0.00000   0.00037   0.00037   2.53502
   R13        2.50695  -0.00096   0.00000  -0.00159  -0.00159   2.50536
   R14        1.88056  -0.00521   0.00000  -0.01064  -0.01064   1.86992
    A1        1.87811   0.00525   0.00000   0.01742   0.01706   1.89517
    A2        1.87326   0.00713   0.00000   0.02967   0.02943   1.90269
    A3        1.94083  -0.00573   0.00000  -0.02342  -0.02373   1.91710
    A4        1.87320   0.00713   0.00000   0.02966   0.02942   1.90263
    A5        1.94068  -0.00572   0.00000  -0.02337  -0.02367   1.91701
    A6        1.95403  -0.00678   0.00000  -0.02499  -0.02523   1.92880
    A7        2.11584   0.00610   0.00000   0.02401   0.02401   2.13985
    A8        1.97084  -0.00121   0.00000  -0.00477  -0.00477   1.96607
    A9        2.19650  -0.00489   0.00000  -0.01924  -0.01924   2.17726
   A10        2.06809  -0.00320   0.00000  -0.01430  -0.01430   2.05379
   A11        2.12016  -0.00052   0.00000  -0.00576  -0.00576   2.11441
   A12        2.09493   0.00372   0.00000   0.02006   0.02006   2.11499
   A13        2.18742  -0.00202   0.00000  -0.00794  -0.00794   2.17948
   A14        1.99211   0.00701   0.00000   0.02759   0.02759   2.01970
   A15        2.10366  -0.00499   0.00000  -0.01966  -0.01966   2.08400
   A16        1.93140  -0.00581   0.00000  -0.02305  -0.02332   1.90808
   A17        1.93158  -0.00582   0.00000  -0.02306  -0.02333   1.90826
   A18        1.96623  -0.00573   0.00000  -0.02223  -0.02248   1.94376
   A19        1.86510   0.00575   0.00000   0.02202   0.02174   1.88684
   A20        1.88286   0.00637   0.00000   0.02538   0.02514   1.90800
   A21        1.88284   0.00638   0.00000   0.02541   0.02517   1.90802
   A22        1.91460  -0.01310   0.00000  -0.07989  -0.07989   1.83472
    D1       -2.09767  -0.00052   0.00000  -0.00420  -0.00414  -2.10181
    D2        1.04410  -0.00052   0.00000  -0.00415  -0.00410   1.04000
    D3        2.09297   0.00052   0.00000   0.00513   0.00508   2.09806
    D4       -1.04844   0.00053   0.00000   0.00518   0.00512  -1.04332
    D5       -0.00226   0.00000   0.00000   0.00045   0.00045  -0.00181
    D6        3.13951   0.00000   0.00000   0.00050   0.00050   3.14001
    D7       -3.14143   0.00000   0.00000   0.00017   0.00017  -3.14126
    D8        0.00022   0.00000   0.00000   0.00014   0.00014   0.00036
    D9       -0.00004   0.00000   0.00000   0.00012   0.00012   0.00008
   D10       -3.14158   0.00000   0.00000   0.00010   0.00010  -3.14148
   D11        3.14143  -0.00000   0.00000  -0.00008  -0.00008   3.14135
   D12        0.00002  -0.00000   0.00000  -0.00005  -0.00005  -0.00002
   D13       -0.00002  -0.00000   0.00000  -0.00009  -0.00009  -0.00011
   D14        3.14138  -0.00000   0.00000  -0.00013  -0.00013   3.14125
   D15        3.14152  -0.00000   0.00000  -0.00007  -0.00007   3.14145
   D16       -0.00026  -0.00000   0.00000  -0.00011  -0.00011  -0.00037
   D17       -1.03403   0.00010   0.00000   0.00093   0.00091  -1.03312
   D18        1.03016  -0.00010   0.00000  -0.00083  -0.00081   1.02935
   D19        3.13972   0.00000   0.00000   0.00006   0.00006   3.13978
   D20        2.10738   0.00010   0.00000   0.00090   0.00087   2.10826
   D21       -2.11161  -0.00010   0.00000  -0.00087  -0.00085  -2.11246
   D22       -0.00206   0.00000   0.00000   0.00002   0.00002  -0.00203
         Item               Value     Threshold  Converged?
 Maximum Force            0.014122     0.000450     NO 
 RMS     Force            0.004332     0.000300     NO 
 Maximum Displacement     0.234347     0.001800     NO 
 RMS     Displacement     0.054258     0.001200     NO 
 Predicted change in Energy=-2.016302D-03
 GradGradGradGradGradGradGradGradGradGradGradGradGradGradGradGradGradGrad

                          Input orientation:                          
 ---------------------------------------------------------------------
 Center     Atomic      Atomic             Coordinates (Angstroms)
 Number     Number       Type             X           Y           Z
 ---------------------------------------------------------------------
      1          6           0        2.518815    0.278824    0.000026
      2          9           0        3.218162   -0.069299   -1.082871
      3          9           0        3.215768   -0.065738    1.085667
      4          9           0        2.343399    1.602704   -0.002299
      5          6           0        1.176614   -0.436632   -0.000210
      6          6           0       -0.006702    0.228384   -0.000452
      7          6           0       -1.218241   -0.558128   -0.000240
      8          8           0       -1.258499   -1.782048    0.000033
      9          6           0       -2.540682    0.245565   -0.000055
     10          9           0       -2.583177    1.030183    1.087211
     11          9           0       -2.581601    1.033696   -1.084828
     12          9           0       -3.594709   -0.558619   -0.002111
     13          1           0       -0.040779    1.306253   -0.000818
     14          8           0        1.300150   -1.740532    0.000111
     15          1           0        0.373501   -2.087615    0.000152
 ---------------------------------------------------------------------
                    Distance matrix (angstroms):
                    1          2          3          4          5
     1  C    0.000000
     2  F    1.335269   0.000000
     3  F    1.335321   2.168542   0.000000
     4  F    1.335454   2.174498   2.174487   0.000000
     5  C    1.520980   2.339873   2.339837   2.349528   0.000000
     6  C    2.526021   3.414674   3.413279   2.722450   1.357381
     7  C    3.829631   4.592681   4.591521   4.165871   2.397935
     8  O    4.302940   4.913928   4.913592   4.942694   2.782072
     9  C    5.059607   5.868213   5.866210   5.069130   3.779377
    10  F    5.270374   6.290760   5.901594   5.077988   4.179721
    11  F    5.268869   5.903715   6.287231   5.074570   4.178808
    12  F    6.170615   6.915395   6.914389   6.319212   4.772883
    13  H    2.758104   3.699146   3.697013   2.402539   2.125957
    14  O    2.358589   2.764895   2.766398   3.502229   1.309740
    15  H    3.194121   3.652210   3.653055   4.183176   1.835957
                    6          7          8          9         10
     6  C    0.000000
     7  C    1.444447   0.000000
     8  O    2.368298   1.224582   0.000000
     9  C    2.534039   1.547506   2.399001   0.000000
    10  F    2.909315   2.359731   3.293231   1.341483   0.000000
    11  F    2.907662   2.359870   3.294834   1.341476   2.172042
    12  F    3.673305   2.376469   2.637169   1.325778   2.175801
    13  H    1.078407   2.205070   3.319705   2.715617   2.779174
    14  O    2.363154   2.782152   2.558986   4.323953   4.892737
    15  H    2.347000   2.207481   1.660360   3.733121   4.432190
                   11         12         13         14         15
    11  F    0.000000
    12  F    2.175806   0.000000
    13  H    2.775813   4.013498   0.000000
    14  O    4.892997   5.035530   3.328812   0.000000
    15  H    4.433101   4.252590   3.419060   0.989518   0.000000
 Stoichiometry    C5H2F6O2
 Framework group  C1[X(C5H2F6O2)]
 Deg. of freedom    39
 Full point group                 C1      NOp   1
 Largest Abelian subgroup         C1      NOp   1
 Largest concise Abelian subgroup C1      NOp   1
                         Standard orientation:                         
 ---------------------------------------------------------------------
 Center     Atomic      Atomic             Coordinates (Angstroms)
 Number     Number       Type             X           Y           Z
 ---------------------------------------------------------------------
      1          6           0       -2.515147   -0.312230    0.000008
      2          9           0       -3.214154    0.036573   -1.082889
      3          9           0       -3.211763    0.033011    1.085649
      4          9           0       -2.341021   -1.636282   -0.002316
      5          6           0       -1.172249    0.401916   -0.000228
      6          6           0        0.010418   -0.264253   -0.000469
      7          6           0        1.222723    0.521078   -0.000257
      8          8           0        1.264175    1.744958    0.000015
      9          6           0        2.544381   -0.283904   -0.000073
     10          9           0        2.586111   -1.068563    1.087193
     11          9           0        2.584530   -1.072075   -1.084845
     12          9           0        3.599191    0.519252   -0.002128
     13          1           0        0.043445   -1.342155   -0.000836
     14          8           0       -1.294514    1.705937    0.000093
     15          1           0       -0.367526    2.052116    0.000134
 ---------------------------------------------------------------------
 Rotational constants (GHZ):           1.6932991           0.3809989           0.3495148
 Standard basis: GTBas3 (6D, 7F)
 There are   413 symmetry adapted cartesian basis functions of A   symmetry.
 There are   374 symmetry adapted basis functions of A   symmetry.
   374 basis functions,   586 primitive gaussians,   413 cartesian basis functions
    51 alpha electrons       51 beta electrons
       nuclear repulsion energy       885.9518978403 Hartrees.
 NAtoms=   15 NActive=   15 NUniq=   15 SFac= 1.00D+00 NAtFMM=   60 NAOKFM=F Big=F
 Integral buffers will be    131072 words long.
 Raffenetti 2 integral format.
 Two-electron integral symmetry is turned on.
 One-electron integrals computed using PRISM.
 NBasis=   374 RedAO= T EigKep=  3.09D-04  NBF=   374
 NBsUse=   374 1.00D-06 EigRej= -1.00D+00 NBFU=   374
 Initial guess from the checkpoint file:  "/home/artemiy/opt/gaussian/scr/Gau-7856.chk"
 B after Tr=    -0.000000    0.000000   -0.000000
         Rot=    1.000000    0.000019    0.000001    0.000374 Ang=   0.04 deg.
 ExpMin= 1.61D-01 ExpMax= 7.00D+03 ExpMxC= 1.05D+03 IAcc=2 IRadAn=         4 AccDes= 0.00D+00
 Harris functional with IExCor=  402 and IRadAn=       4 diagonalized for initial guess.
 HarFok:  IExCor=  402 AccDes= 0.00D+00 IRadAn=         4 IDoV= 1 UseB2=F ITyADJ=14
 ICtDFT=  3500011 ScaDFX=  1.000000  1.000000  1.000000  1.000000
 FoFCou: FMM=F IPFlag=           0 FMFlag=      100000 FMFlg1=           0
         NFxFlg=           0 DoJE=T BraDBF=F KetDBF=T FulRan=T
         wScrn=  0.000000 ICntrl=       500 IOpCl=  0 I1Cent=   200000004 NGrid=           0
         NMat0=    1 NMatS0=      1 NMatT0=    0 NMatD0=    1 NMtDS0=    0 NMtDT0=    0
 Petite list used in FoFCou.
 Requested convergence on RMS density matrix=1.00D-08 within 128 cycles.
 Requested convergence on MAX density matrix=1.00D-06.
 Requested convergence on             energy=1.00D-06.
 No special actions if energy rises.
 Integral accuracy reduced to 1.0D-05 until final iterations.
 Initial convergence to 1.0D-05 achieved.  Increase integral accuracy.
 SCF Done:  E(RB3LYP) =  -941.273687386     A.U. after   11 cycles
            NFock= 11  Conv=0.88D-08     -V/T= 2.0058
 Calling FoFJK, ICntrl=      2127 FMM=F ISym2X=0 I1Cent= 0 IOpClX= 0 NMat=1 NMatS=1 NMatT=0.
 ***** Axes restored to original set *****
 -------------------------------------------------------------------
 Center     Atomic                   Forces (Hartrees/Bohr)
 Number     Number              X              Y              Z
 -------------------------------------------------------------------
      1        6          -0.003458883   -0.001859022    0.000004412
      2        9           0.000871343    0.002113134    0.001914754
      3        9           0.000872253    0.002103333   -0.001928924
      4        9           0.003443779   -0.001229002    0.000007094
      5        6           0.002733962    0.003606240    0.000005175
      6        6          -0.004294801   -0.002059764   -0.000006638
      7        6           0.000607215    0.010963978   -0.000003108
      8        8           0.000232293   -0.006023400    0.000000484
      9        6           0.000989619   -0.003374557    0.000000694
     10        9          -0.001812032   -0.000379790   -0.002086570
     11        9          -0.001814924   -0.000385830    0.002081634
     12        9           0.001561719    0.003647705    0.000006369
     13        1           0.000066835   -0.000206403   -0.000000457
     14        8           0.005539441   -0.000223359    0.000002518
     15        1          -0.005537819   -0.006693262    0.000002563
 -------------------------------------------------------------------
 Cartesian Forces:  Max     0.010963978 RMS     0.002968672

 GradGradGradGradGradGradGradGradGradGradGradGradGradGradGradGradGradGrad
 Berny optimization.
 Using GEDIIS/GDIIS optimizer.
 FormGI is forming the generalized inverse of G from B-inverse, IUseBI=4.
 Internal  Forces:  Max     0.008088492 RMS     0.002749164
 Search for a local minimum.
 Step number   2 out of a maximum of   68
 All quantities printed in internal units (Hartrees-Bohrs-Radians)
 Mixed Optimization -- RFO/linear search
 Update second derivatives using D2CorX and points    1    2
 DE= -1.24D-03 DEPred=-2.02D-03 R= 6.13D-01
 TightC=F SS=  1.41D+00  RLast= 1.31D-01 DXNew= 5.0454D-01 3.9347D-01
 Trust test= 6.13D-01 RLast= 1.31D-01 DXMaxT set to 3.93D-01
 ITU=  1  0
 Use linear search instead of GDIIS.
     Eigenvalues ---    0.00230   0.00376   0.00809   0.01579   0.01649
     Eigenvalues ---    0.02105   0.02632   0.02924   0.10814   0.11049
     Eigenvalues ---    0.11193   0.11306   0.15885   0.17459   0.21808
     Eigenvalues ---    0.23070   0.25000   0.25000   0.25000   0.25000
     Eigenvalues ---    0.25000   0.25000   0.25000   0.25000   0.27717
     Eigenvalues ---    0.29225   0.33285   0.36486   0.40116   0.50760
     Eigenvalues ---    0.54792   0.56917   0.57265   0.58477   0.58575
     Eigenvalues ---    0.59083   0.61082   0.66897   0.93276
 RFO step:  Lambda=-3.89920802D-04 EMin= 2.30000007D-03
 Quartic linear search produced a step of -0.27700.
 Iteration  1 RMS(Cart)=  0.01678947 RMS(Int)=  0.00016953
 Iteration  2 RMS(Cart)=  0.00021809 RMS(Int)=  0.00002901
 Iteration  3 RMS(Cart)=  0.00000007 RMS(Int)=  0.00002901
 Variable       Old X    -DE/DX   Delta X   Delta X   Delta X     New X
                                 (Linear)    (Quad)   (Total)
    R1        2.52329  -0.00165  -0.00069  -0.00107  -0.00176   2.52153
    R2        2.52339  -0.00166  -0.00069  -0.00109  -0.00177   2.52162
    R3        2.52364  -0.00167  -0.00046  -0.00142  -0.00188   2.52176
    R4        2.87423   0.00206   0.00445  -0.00132   0.00313   2.87737
    R5        2.56508   0.00496   0.00080   0.00562   0.00642   2.57150
    R6        2.47505   0.00689  -0.00153   0.00974   0.00821   2.48325
    R7        2.72961  -0.00222  -0.00309   0.00031  -0.00278   2.72683
    R8        2.03789  -0.00021  -0.00132   0.00145   0.00013   2.03803
    R9        2.31412   0.00601  -0.00403   0.01003   0.00600   2.32013
   R10        2.92436   0.00066   0.00083   0.00053   0.00137   2.92573
   R11        2.53504  -0.00186  -0.00010  -0.00222  -0.00232   2.53272
   R12        2.53502  -0.00185  -0.00010  -0.00221  -0.00231   2.53271
   R13        2.50536  -0.00345   0.00044  -0.00475  -0.00431   2.50105
   R14        1.86992   0.00753   0.00295   0.00709   0.01003   1.87995
    A1        1.89517  -0.00287  -0.00473  -0.00171  -0.00635   1.88882
    A2        1.90269  -0.00373  -0.00815   0.00093  -0.00718   1.89551
    A3        1.91710   0.00286   0.00657  -0.00136   0.00528   1.92238
    A4        1.90263  -0.00373  -0.00815   0.00093  -0.00717   1.89545
    A5        1.91701   0.00285   0.00656  -0.00135   0.00528   1.92228
    A6        1.92880   0.00439   0.00699   0.00252   0.00955   1.93835
    A7        2.13985  -0.00151  -0.00665   0.00523  -0.00142   2.13844
    A8        1.96607  -0.00248   0.00132  -0.00908  -0.00776   1.95831
    A9        2.17726   0.00399   0.00533   0.00385   0.00918   2.18644
   A10        2.05379   0.00412   0.00396   0.00774   0.01170   2.06549
   A11        2.11441  -0.00212   0.00160  -0.00948  -0.00789   2.10652
   A12        2.11499  -0.00200  -0.00556   0.00174  -0.00382   2.11118
   A13        2.17948  -0.00181   0.00220  -0.00838  -0.00618   2.17330
   A14        2.01970   0.00262  -0.00764   0.01857   0.01092   2.03063
   A15        2.08400  -0.00081   0.00545  -0.01019  -0.00474   2.07926
   A16        1.90808   0.00267   0.00646  -0.00166   0.00486   1.91294
   A17        1.90826   0.00267   0.00646  -0.00167   0.00486   1.91311
   A18        1.94376   0.00223   0.00623  -0.00272   0.00357   1.94733
   A19        1.88684  -0.00253  -0.00602   0.00139  -0.00456   1.88228
   A20        1.90800  -0.00259  -0.00696   0.00239  -0.00452   1.90348
   A21        1.90802  -0.00259  -0.00697   0.00240  -0.00452   1.90350
   A22        1.83472   0.00809   0.02213   0.00345   0.02558   1.86030
    D1       -2.10181   0.00000   0.00115  -0.00048   0.00065  -2.10117
    D2        1.04000   0.00000   0.00114  -0.00048   0.00064   1.04064
    D3        2.09806   0.00000  -0.00141   0.00330   0.00191   2.09996
    D4       -1.04332   0.00000  -0.00142   0.00330   0.00190  -1.04142
    D5       -0.00181   0.00000  -0.00013   0.00140   0.00127  -0.00053
    D6        3.14001   0.00000  -0.00014   0.00140   0.00127   3.14127
    D7       -3.14126  -0.00000  -0.00005   0.00009   0.00004  -3.14122
    D8        0.00036  -0.00000  -0.00004   0.00005   0.00001   0.00037
    D9        0.00008  -0.00000  -0.00003   0.00008   0.00005   0.00013
   D10       -3.14148  -0.00000  -0.00003   0.00005   0.00002  -3.14146
   D11        3.14135  -0.00000   0.00002  -0.00007  -0.00004   3.14130
   D12       -0.00002  -0.00000   0.00001  -0.00006  -0.00005  -0.00007
   D13       -0.00011  -0.00000   0.00002  -0.00013  -0.00010  -0.00021
   D14        3.14125  -0.00000   0.00004  -0.00018  -0.00015   3.14111
   D15        3.14145  -0.00000   0.00002  -0.00009  -0.00008   3.14138
   D16       -0.00037  -0.00000   0.00003  -0.00015  -0.00012  -0.00049
   D17       -1.03312  -0.00003  -0.00025   0.00017  -0.00008  -1.03319
   D18        1.02935   0.00003   0.00022  -0.00010   0.00012   1.02947
   D19        3.13978  -0.00000  -0.00002   0.00004   0.00002   3.13980
   D20        2.10826  -0.00003  -0.00024   0.00012  -0.00012   2.10814
   D21       -2.11246   0.00003   0.00024  -0.00015   0.00008  -2.11238
   D22       -0.00203  -0.00000  -0.00001  -0.00001  -0.00002  -0.00205
         Item               Value     Threshold  Converged?
 Maximum Force            0.008088     0.000450     NO 
 RMS     Force            0.002749     0.000300     NO 
 Maximum Displacement     0.080731     0.001800     NO 
 RMS     Displacement     0.016916     0.001200     NO 
 Predicted change in Energy=-4.297238D-04
 GradGradGradGradGradGradGradGradGradGradGradGradGradGradGradGradGradGrad

                          Input orientation:                          
 ---------------------------------------------------------------------
 Center     Atomic      Atomic             Coordinates (Angstroms)
 Number     Number       Type             X           Y           Z
 ---------------------------------------------------------------------
      1          6           0        2.520099    0.280563    0.000051
      2          9           0        3.225214   -0.060260   -1.080275
      3          9           0        3.223938   -0.058584    1.081792
      4          9           0        2.352694    1.604478   -0.001036
      5          6           0        1.179020   -0.440498   -0.000107
      6          6           0       -0.008708    0.223599   -0.000621
      7          6           0       -1.226444   -0.550550   -0.000257
      8          8           0       -1.270908   -1.777502    0.000274
      9          6           0       -2.550628    0.251665   -0.000194
     10          9           0       -2.600039    1.037855    1.084127
     11          9           0       -2.598523    1.040938   -1.082335
     12          9           0       -3.604579   -0.548853   -0.002060
     13          1           0       -0.036634    1.301714   -0.001286
     14          8           0        1.317810   -1.747230    0.000564
     15          1           0        0.399708   -2.130336    0.000680
 ---------------------------------------------------------------------
                    Distance matrix (angstroms):
                    1          2          3          4          5
     1  C    0.000000
     2  F    1.334336   0.000000
     3  F    1.334382   2.162068   0.000000
     4  F    1.334457   2.167349   2.167338   0.000000
     5  C    1.522637   2.344836   2.344793   2.357846   0.000000
     6  C    2.529449   3.421181   3.420709   2.735516   1.360780
     7  C    3.837621   4.606960   4.606383   4.177844   2.407980
     8  O    4.313626   4.932709   4.932343   4.956640   2.791008
     9  C    5.070809   5.884235   5.883244   5.086519   3.793331
    10  F    5.288150   6.310632   5.926289   5.101785   4.200283
    11  F    5.286778   5.926935   6.308205   5.099151   4.199488
    12  F    6.180584   6.931620   6.931360   6.334504   4.784827
    13  H    2.753114   3.695788   3.695241   2.408434   2.124411
    14  O    2.357424   2.766274   2.766570   3.507839   1.314082
    15  H    3.210684   3.665674   3.665684   4.214617   1.860881
                    6          7          8          9         10
     6  C    0.000000
     7  C    1.442979   0.000000
     8  O    2.365915   1.227757   0.000000
     9  C    2.542074   1.548228   2.399000   0.000000
    10  F    2.924840   2.363405   3.296599   1.340257   0.000000
    11  F    2.923232   2.363541   3.298213   1.340251   2.166465
    12  F    3.677903   2.378136   2.637348   1.323498   2.169458
    13  H    1.078478   2.201484   3.317380   2.724476   2.796210
    14  O    2.375672   2.811631   2.588895   4.354353   4.927509
    15  H    2.389103   2.267178   1.707469   3.791887   4.495528
                   11         12         13         14         15
    11  F    0.000000
    12  F    2.169465   0.000000
    13  H    2.792838   4.019308   0.000000
    14  O    4.927901   5.066165   3.336253   0.000000
    15  H    4.496586   4.305277   3.459678   0.994827   0.000000
 Stoichiometry    C5H2F6O2
 Framework group  C1[X(C5H2F6O2)]
 Deg. of freedom    39
 Full point group                 C1      NOp   1
 Largest Abelian subgroup         C1      NOp   1
 Largest concise Abelian subgroup C1      NOp   1
                         Standard orientation:                         
 ---------------------------------------------------------------------
 Center     Atomic      Atomic             Coordinates (Angstroms)
 Number     Number       Type             X           Y           Z
 ---------------------------------------------------------------------
      1          6           0       -2.517929   -0.314052   -0.000003
      2          9           0       -3.223146    0.026151   -1.080458
      3          9           0       -3.221979    0.025069    1.081609
      4          9           0       -2.349915   -1.637889   -0.000718
      5          6           0       -1.177181    0.407627   -0.000291
      6          6           0        0.010852   -0.255924   -0.000563
      7          6           0        1.228232    0.518785   -0.000350
      8          8           0        1.272131    1.745758   -0.000152
      9          6           0        2.552784   -0.282821    0.000001
     10          9           0        2.602502   -1.068690    1.084540
     11          9           0        2.601097   -1.072368   -1.081921
     12          9           0        3.606368    0.518182   -0.002031
     13          1           0        0.039274   -1.334027   -0.000930
     14          8           0       -1.316572    1.714295    0.000015
     15          1           0       -0.398647    2.097823    0.000072
 ---------------------------------------------------------------------
 Rotational constants (GHZ):           1.6920063           0.3783955           0.3470316
 Standard basis: GTBas3 (6D, 7F)
 There are   413 symmetry adapted cartesian basis functions of A   symmetry.
 There are   374 symmetry adapted basis functions of A   symmetry.
   374 basis functions,   586 primitive gaussians,   413 cartesian basis functions
    51 alpha electrons       51 beta electrons
       nuclear repulsion energy       884.4198335339 Hartrees.
 NAtoms=   15 NActive=   15 NUniq=   15 SFac= 1.00D+00 NAtFMM=   60 NAOKFM=F Big=F
 Integral buffers will be    131072 words long.
 Raffenetti 2 integral format.
 Two-electron integral symmetry is turned on.
 One-electron integrals computed using PRISM.
 NBasis=   374 RedAO= T EigKep=  3.13D-04  NBF=   374
 NBsUse=   374 1.00D-06 EigRej= -1.00D+00 NBFU=   374
 Initial guess from the checkpoint file:  "/home/artemiy/opt/gaussian/scr/Gau-7856.chk"
 B after Tr=     0.000000    0.000000    0.000000
         Rot=    1.000000    0.000189    0.000028   -0.000589 Ang=   0.07 deg.
 ExpMin= 1.61D-01 ExpMax= 7.00D+03 ExpMxC= 1.05D+03 IAcc=2 IRadAn=         4 AccDes= 0.00D+00
 Harris functional with IExCor=  402 and IRadAn=       4 diagonalized for initial guess.
 HarFok:  IExCor=  402 AccDes= 0.00D+00 IRadAn=         4 IDoV= 1 UseB2=F ITyADJ=14
 ICtDFT=  3500011 ScaDFX=  1.000000  1.000000  1.000000  1.000000
 FoFCou: FMM=F IPFlag=           0 FMFlag=      100000 FMFlg1=           0
         NFxFlg=           0 DoJE=T BraDBF=F KetDBF=T FulRan=T
         wScrn=  0.000000 ICntrl=       500 IOpCl=  0 I1Cent=   200000004 NGrid=           0
         NMat0=    1 NMatS0=      1 NMatT0=    0 NMatD0=    1 NMtDS0=    0 NMtDT0=    0
 Petite list used in FoFCou.
 Requested convergence on RMS density matrix=1.00D-08 within 128 cycles.
 Requested convergence on MAX density matrix=1.00D-06.
 Requested convergence on             energy=1.00D-06.
 No special actions if energy rises.
 Integral accuracy reduced to 1.0D-05 until final iterations.
 Initial convergence to 1.0D-05 achieved.  Increase integral accuracy.
 SCF Done:  E(RB3LYP) =  -941.274093948     A.U. after   11 cycles
            NFock= 11  Conv=0.53D-08     -V/T= 2.0058
 Calling FoFJK, ICntrl=      2127 FMM=F ISym2X=0 I1Cent= 0 IOpClX= 0 NMat=1 NMatS=1 NMatT=0.
 ***** Axes restored to original set *****
 -------------------------------------------------------------------
 Center     Atomic                   Forces (Hartrees/Bohr)
 Number     Number              X              Y              Z
 -------------------------------------------------------------------
      1        6          -0.000608330   -0.000577684    0.000015754
      2        9           0.000100997    0.000542158    0.000180867
      3        9           0.000092351    0.000542424   -0.000199151
      4        9           0.000671300   -0.000418529   -0.000003676
      5        6          -0.001174198    0.001350928    0.000010697
      6        6          -0.000551566   -0.002019566   -0.000006767
      7        6           0.001124955    0.002329759   -0.000003055
      8        8           0.000542071   -0.001427729    0.000002741
      9        6           0.000594917   -0.001432584    0.000000940
     10        9          -0.000529190    0.000062122   -0.000346981
     11        9          -0.000528829    0.000062907    0.000344948
     12        9           0.000758232    0.001130855    0.000001299
     13        1           0.000250888    0.000115999    0.000004019
     14        8          -0.000162912   -0.000647360    0.000003483
     15        1          -0.000580687    0.000386303   -0.000005117
 -------------------------------------------------------------------
 Cartesian Forces:  Max     0.002329759 RMS     0.000740823

 GradGradGradGradGradGradGradGradGradGradGradGradGradGradGradGradGradGrad
 Berny optimization.
 Using GEDIIS/GDIIS optimizer.
 FormGI is forming the generalized inverse of G from B-inverse, IUseBI=4.
 Internal  Forces:  Max     0.002043838 RMS     0.000751043
 Search for a local minimum.
 Step number   3 out of a maximum of   68
 All quantities printed in internal units (Hartrees-Bohrs-Radians)
 Mixed Optimization -- En-DIIS/RFO-DIIS
 Update second derivatives using D2CorX and points    1    2    3
 DE= -4.07D-04 DEPred=-4.30D-04 R= 9.46D-01
 TightC=F SS=  1.41D+00  RLast= 4.38D-02 DXNew= 6.6174D-01 1.3150D-01
 Trust test= 9.46D-01 RLast= 4.38D-02 DXMaxT set to 3.93D-01
 ITU=  1  1  0
 Use linear search instead of GDIIS.
     Eigenvalues ---    0.00230   0.00376   0.00808   0.01579   0.01660
     Eigenvalues ---    0.02104   0.02632   0.02924   0.10738   0.10904
     Eigenvalues ---    0.11136   0.11222   0.15464   0.17636   0.20168
     Eigenvalues ---    0.23178   0.25000   0.25000   0.25000   0.25000
     Eigenvalues ---    0.25000   0.25000   0.25000   0.26879   0.27719
     Eigenvalues ---    0.29406   0.34714   0.36484   0.39850   0.49759
     Eigenvalues ---    0.55949   0.56917   0.57849   0.58442   0.58575
     Eigenvalues ---    0.59175   0.60523   0.68909   0.90573
 RFO step:  Lambda=-1.06674530D-04 EMin= 2.30000032D-03
 Quartic linear search produced a step of -0.01696.
 Iteration  1 RMS(Cart)=  0.01283485 RMS(Int)=  0.00005091
 Iteration  2 RMS(Cart)=  0.00007541 RMS(Int)=  0.00000198
 Iteration  3 RMS(Cart)=  0.00000000 RMS(Int)=  0.00000198
 Variable       Old X    -DE/DX   Delta X   Delta X   Delta X     New X
                                 (Linear)    (Quad)   (Total)
    R1        2.52153  -0.00023   0.00003  -0.00069  -0.00066   2.52087
    R2        2.52162  -0.00025   0.00003  -0.00073  -0.00069   2.52092
    R3        2.52176  -0.00050   0.00003  -0.00119  -0.00116   2.52060
    R4        2.87737   0.00027  -0.00005   0.00108   0.00102   2.87839
    R5        2.57150  -0.00203  -0.00011  -0.00245  -0.00255   2.56895
    R6        2.48325   0.00018  -0.00014   0.00220   0.00206   2.48532
    R7        2.72683  -0.00204   0.00005  -0.00529  -0.00525   2.72159
    R8        2.03803   0.00011  -0.00000   0.00047   0.00046   2.03849
    R9        2.32013   0.00141  -0.00010   0.00316   0.00306   2.32318
   R10        2.92573  -0.00034  -0.00002  -0.00102  -0.00104   2.92469
   R11        2.53272  -0.00023   0.00004  -0.00087  -0.00084   2.53188
   R12        2.53271  -0.00022   0.00004  -0.00087  -0.00083   2.53188
   R13        2.50105  -0.00129   0.00007  -0.00307  -0.00299   2.49805
   R14        1.87995   0.00039  -0.00017   0.00261   0.00244   1.88239
    A1        1.88882  -0.00033   0.00011  -0.00121  -0.00111   1.88771
    A2        1.89551  -0.00079   0.00012  -0.00423  -0.00411   1.89140
    A3        1.92238   0.00056  -0.00009   0.00282   0.00273   1.92511
    A4        1.89545  -0.00079   0.00012  -0.00418  -0.00406   1.89139
    A5        1.92228   0.00056  -0.00009   0.00284   0.00274   1.92503
    A6        1.93835   0.00073  -0.00016   0.00366   0.00349   1.94184
    A7        2.13844   0.00106   0.00002   0.00459   0.00461   2.14305
    A8        1.95831   0.00097   0.00013   0.00198   0.00211   1.96042
    A9        2.18644  -0.00203  -0.00016  -0.00657  -0.00673   2.17971
   A10        2.06549  -0.00186  -0.00020  -0.00620  -0.00640   2.05909
   A11        2.10652   0.00067   0.00013   0.00070   0.00083   2.10735
   A12        2.11118   0.00119   0.00006   0.00550   0.00557   2.11674
   A13        2.17330  -0.00107   0.00010  -0.00576  -0.00566   2.16764
   A14        2.03063   0.00077  -0.00019   0.00617   0.00599   2.03662
   A15        2.07926   0.00031   0.00008  -0.00041  -0.00033   2.07893
   A16        1.91294   0.00080  -0.00008   0.00352   0.00343   1.91638
   A17        1.91311   0.00080  -0.00008   0.00351   0.00342   1.91654
   A18        1.94733   0.00041  -0.00006   0.00155   0.00149   1.94882
   A19        1.88228  -0.00071   0.00008  -0.00286  -0.00279   1.87948
   A20        1.90348  -0.00067   0.00008  -0.00297  -0.00289   1.90059
   A21        1.90350  -0.00067   0.00008  -0.00297  -0.00289   1.90061
   A22        1.86030  -0.00109  -0.00043  -0.00361  -0.00404   1.85625
    D1       -2.10117   0.00015  -0.00001   0.00134   0.00133  -2.09983
    D2        1.04064   0.00015  -0.00001   0.00114   0.00113   1.04177
    D3        2.09996  -0.00014  -0.00003  -0.00070  -0.00073   2.09923
    D4       -1.04142  -0.00015  -0.00003  -0.00091  -0.00094  -1.04236
    D5       -0.00053  -0.00000  -0.00002   0.00028   0.00026  -0.00027
    D6        3.14127  -0.00000  -0.00002   0.00008   0.00005   3.14133
    D7       -3.14122  -0.00000  -0.00000  -0.00015  -0.00015  -3.14137
    D8        0.00037  -0.00000  -0.00000  -0.00020  -0.00020   0.00018
    D9        0.00013   0.00000  -0.00000   0.00008   0.00008   0.00022
   D10       -3.14146  -0.00000  -0.00000   0.00004   0.00004  -3.14142
   D11        3.14130   0.00001   0.00000   0.00024   0.00024   3.14155
   D12       -0.00007   0.00000   0.00000   0.00003   0.00003  -0.00004
   D13       -0.00021   0.00000   0.00000   0.00002   0.00002  -0.00019
   D14        3.14111   0.00000   0.00000   0.00000   0.00001   3.14111
   D15        3.14138   0.00000   0.00000   0.00007   0.00007   3.14145
   D16       -0.00049   0.00000   0.00000   0.00005   0.00005  -0.00044
   D17       -1.03319  -0.00004   0.00000  -0.00063  -0.00063  -1.03382
   D18        1.02947   0.00004  -0.00000   0.00007   0.00007   1.02954
   D19        3.13980  -0.00000  -0.00000  -0.00028  -0.00028   3.13952
   D20        2.10814  -0.00004   0.00000  -0.00065  -0.00065   2.10749
   D21       -2.11238   0.00004  -0.00000   0.00005   0.00005  -2.11232
   D22       -0.00205  -0.00000   0.00000  -0.00030  -0.00030  -0.00235
         Item               Value     Threshold  Converged?
 Maximum Force            0.002044     0.000450     NO 
 RMS     Force            0.000751     0.000300     NO 
 Maximum Displacement     0.039908     0.001800     NO 
 RMS     Displacement     0.012858     0.001200     NO 
 Predicted change in Energy=-5.351624D-05
 GradGradGradGradGradGradGradGradGradGradGradGradGradGradGradGradGradGrad

                          Input orientation:                          
 ---------------------------------------------------------------------
 Center     Atomic      Atomic             Coordinates (Angstroms)
 Number     Number       Type             X           Y           Z
 ---------------------------------------------------------------------
      1          6           0        2.524003    0.276301    0.000012
      2          9           0        3.228318   -0.066614   -1.079742
      3          9           0        3.227439   -0.065034    1.080873
      4          9           0        2.371433    1.601390   -0.001017
      5          6           0        1.176966   -0.434728    0.000046
      6          6           0       -0.007560    0.232314   -0.000567
      7          6           0       -1.220351   -0.544424   -0.000189
      8          8           0       -1.253793   -1.773345    0.000461
      9          6           0       -2.551501    0.245100   -0.000244
     10          9           0       -2.612759    1.031564    1.082729
     11          9           0       -2.610871    1.034996   -1.080815
     12          9           0       -3.597876   -0.562705   -0.002428
     13          1           0       -0.033111    1.310735   -0.001275
     14          8           0        1.303093   -1.743840    0.000732
     15          1           0        0.378589   -2.114712    0.000741
 ---------------------------------------------------------------------
                    Distance matrix (angstroms):
                    1          2          3          4          5
     1  C    0.000000
     2  F    1.333986   0.000000
     3  F    1.334014   2.160616   0.000000
     4  F    1.333843   2.163362   2.163378   0.000000
     5  C    1.523178   2.347232   2.347190   2.360621   0.000000
     6  C    2.531945   3.424162   3.423908   2.744810   1.359429
     7  C    3.833247   4.602651   4.602320   4.183950   2.399826
     8  O    4.297999   4.916207   4.916000   4.952888   2.774975
     9  C    5.075600   5.888021   5.887372   5.106350   3.789938
    10  F    5.303680   6.324592   5.942259   5.132386   4.205262
    11  F    5.301956   5.942195   6.322090   5.129339   4.204291
    12  F    6.179105   6.928466   6.928647   6.349486   4.776558
    13  H    2.758421   3.700959   3.700671   2.422047   2.123894
    14  O    2.360422   2.772545   2.772761   3.511683   1.315174
    15  H    3.212436   3.671935   3.672031   4.216734   1.860041
                    6          7          8          9         10
     6  C    0.000000
     7  C    1.440203   0.000000
     8  O    2.361305   1.229376   0.000000
     9  C    2.543973   1.547678   2.399618   0.000000
    10  F    2.932472   2.365427   3.299334   1.339816   0.000000
    11  F    2.930608   2.365558   3.301151   1.339812   2.163547
    12  F    3.677286   2.377596   2.638254   1.321914   2.165575
    13  H    1.078724   2.202533   3.316868   2.734569   2.812043
    14  O    2.371286   2.793988   2.557056   4.337485   4.920109
    15  H    2.378580   2.241075   1.667694   3.762200   4.474139
                   11         12         13         14         15
    11  F    0.000000
    12  F    2.165583   0.000000
    13  H    2.808253   4.027075   0.000000
    14  O    4.920446   5.041288   3.334047   0.000000
    15  H    4.475187   4.268608   3.450100   0.996119   0.000000
 Stoichiometry    C5H2F6O2
 Framework group  C1[X(C5H2F6O2)]
 Deg. of freedom    39
 Full point group                 C1      NOp   1
 Largest Abelian subgroup         C1      NOp   1
 Largest concise Abelian subgroup C1      NOp   1
                         Standard orientation:                         
 ---------------------------------------------------------------------
 Center     Atomic      Atomic             Coordinates (Angstroms)
 Number     Number       Type             X           Y           Z
 ---------------------------------------------------------------------
      1          6           0       -2.520932   -0.310361    0.000011
      2          9           0       -3.225118    0.032300   -1.079908
      3          9           0       -3.224343    0.031545    1.080708
      4          9           0       -2.368659   -1.635484   -0.000505
      5          6           0       -1.173735    0.400367   -0.000161
      6          6           0        0.010641   -0.266941   -0.000463
      7          6           0        1.223606    0.509525   -0.000323
      8          8           0        1.257324    1.738438   -0.000139
      9          6           0        2.554579   -0.280298   -0.000011
     10          9           0        2.615609   -1.066361    1.083264
     11          9           0        2.613824   -1.070619   -1.080278
     12          9           0        3.601136    0.527272   -0.002453
     13          1           0        0.035950   -1.345368   -0.000757
     14          8           0       -1.299569    1.709507    0.000020
     15          1           0       -0.374982    2.080172   -0.000069
 ---------------------------------------------------------------------
 Rotational constants (GHZ):           1.6986733           0.3776590           0.3466052
 Standard basis: GTBas3 (6D, 7F)
 There are   413 symmetry adapted cartesian basis functions of A   symmetry.
 There are   374 symmetry adapted basis functions of A   symmetry.
   374 basis functions,   586 primitive gaussians,   413 cartesian basis functions
    51 alpha electrons       51 beta electrons
       nuclear repulsion energy       884.6992804633 Hartrees.
 NAtoms=   15 NActive=   15 NUniq=   15 SFac= 1.00D+00 NAtFMM=   60 NAOKFM=F Big=F
 Integral buffers will be    131072 words long.
 Raffenetti 2 integral format.
 Two-electron integral symmetry is turned on.
 One-electron integrals computed using PRISM.
 NBasis=   374 RedAO= T EigKep=  3.12D-04  NBF=   374
 NBsUse=   374 1.00D-06 EigRej= -1.00D+00 NBFU=   374
 Initial guess from the checkpoint file:  "/home/artemiy/opt/gaussian/scr/Gau-7856.chk"
 B after Tr=    -0.000000    0.000000    0.000000
         Rot=    1.000000    0.000060   -0.000001    0.000113 Ang=   0.01 deg.
 ExpMin= 1.61D-01 ExpMax= 7.00D+03 ExpMxC= 1.05D+03 IAcc=2 IRadAn=         4 AccDes= 0.00D+00
 Harris functional with IExCor=  402 and IRadAn=       4 diagonalized for initial guess.
 HarFok:  IExCor=  402 AccDes= 0.00D+00 IRadAn=         4 IDoV= 1 UseB2=F ITyADJ=14
 ICtDFT=  3500011 ScaDFX=  1.000000  1.000000  1.000000  1.000000
 FoFCou: FMM=F IPFlag=           0 FMFlag=      100000 FMFlg1=           0
         NFxFlg=           0 DoJE=T BraDBF=F KetDBF=T FulRan=T
         wScrn=  0.000000 ICntrl=       500 IOpCl=  0 I1Cent=   200000004 NGrid=           0
         NMat0=    1 NMatS0=      1 NMatT0=    0 NMatD0=    1 NMtDS0=    0 NMtDT0=    0
 Petite list used in FoFCou.
 Requested convergence on RMS density matrix=1.00D-08 within 128 cycles.
 Requested convergence on MAX density matrix=1.00D-06.
 Requested convergence on             energy=1.00D-06.
 No special actions if energy rises.
 Integral accuracy reduced to 1.0D-05 until final iterations.
 Initial convergence to 1.0D-05 achieved.  Increase integral accuracy.
 SCF Done:  E(RB3LYP) =  -941.274105815     A.U. after   11 cycles
            NFock= 11  Conv=0.40D-08     -V/T= 2.0058
 Calling FoFJK, ICntrl=      2127 FMM=F ISym2X=0 I1Cent= 0 IOpClX= 0 NMat=1 NMatS=1 NMatT=0.
 ***** Axes restored to original set *****
 -------------------------------------------------------------------
 Center     Atomic                   Forces (Hartrees/Bohr)
 Number     Number              X              Y              Z
 -------------------------------------------------------------------
      1        6           0.000712091    0.000183995    0.000011228
      2        9          -0.000241990   -0.000379823   -0.000309590
      3        9          -0.000245145   -0.000374927    0.000300063
      4        9          -0.000764373    0.000363019   -0.000000149
      5        6           0.001070018   -0.002112585   -0.000006172
      6        6          -0.001175070    0.000297297   -0.000001171
      7        6           0.000581766    0.001386109    0.000000620
      8        8          -0.001405451   -0.000753095   -0.000002000
      9        6          -0.000259061   -0.000143428    0.000000482
     10        9           0.000393602    0.000119860    0.000409642
     11        9           0.000394852    0.000123583   -0.000409063
     12        9          -0.000065341   -0.000546560   -0.000001281
     13        1          -0.000027111   -0.000009298    0.000002135
     14        8           0.002380592    0.001991152    0.000002915
     15        1          -0.001349380   -0.000145299    0.000002342
 -------------------------------------------------------------------
 Cartesian Forces:  Max     0.002380592 RMS     0.000764007

 GradGradGradGradGradGradGradGradGradGradGradGradGradGradGradGradGradGrad
 Berny optimization.
 Using GEDIIS/GDIIS optimizer.
 FormGI is forming the generalized inverse of G from B-inverse, IUseBI=4.
 Internal  Forces:  Max     0.002618223 RMS     0.000791233
 Search for a local minimum.
 Step number   4 out of a maximum of   68
 All quantities printed in internal units (Hartrees-Bohrs-Radians)
 Mixed Optimization -- En-DIIS/RFO-DIIS
 Swapping is turned off.
 Update second derivatives using D2CorX and points    1    2    3    4
 DE= -1.19D-05 DEPred=-5.35D-05 R= 2.22D-01
 Trust test= 2.22D-01 RLast= 2.04D-02 DXMaxT set to 3.93D-01
 ITU=  0  1  1  0
     Eigenvalues ---    0.00230   0.00376   0.00805   0.01579   0.01652
     Eigenvalues ---    0.02103   0.02632   0.02924   0.10698   0.10852
     Eigenvalues ---    0.11008   0.11165   0.14005   0.16654   0.21586
     Eigenvalues ---    0.23671   0.25000   0.25000   0.25000   0.25000
     Eigenvalues ---    0.25000   0.25000   0.25354   0.27526   0.29181
     Eigenvalues ---    0.33656   0.36390   0.37700   0.41974   0.48175
     Eigenvalues ---    0.56917   0.57157   0.58065   0.58554   0.58585
     Eigenvalues ---    0.59038   0.68757   0.74763   0.88974
 En-DIIS/RFO-DIIS/Sim-DIIS IScMMF=       -3 using points:     4    3
 RFO step:  Lambda=-5.68932239D-05.
 DidBck=T Rises=F RFO-DIIS coefs:    0.72882    0.27118
[...]
    14  O   -0.010730  -0.031474   0.001278   0.000192   0.000192   0.000263
    15  H   -0.000782   0.040040   0.000742  -0.000094  -0.000097  -0.000310
              13         14         15
     1  C   -0.001627  -0.052182   0.004444
     2  F   -0.000048   0.001238  -0.000456
     3  F   -0.000048   0.001242  -0.000457
     4  F   -0.001057   0.003863  -0.000391
     5  C   -0.013154   0.394410  -0.021167
     6  C    0.391342  -0.076088  -0.011488
     7  C   -0.018501  -0.010730  -0.000782
     8  O    0.003905  -0.031474   0.040040
     9  C    0.003633   0.001278   0.000742
    10  F   -0.000713   0.000192  -0.000094
    11  F   -0.000670   0.000192  -0.000097
    12  F    0.000016   0.000263  -0.000310
    13  H    0.389977   0.003427   0.000386
    14  O    0.003427   8.018647   0.301129
    15  H    0.000386   0.301129   0.237914
 Mulliken charges:
               1
     1  C    0.730540
     2  F   -0.263852
     3  F   -0.263847
     4  F   -0.291022
     5  C    0.424999
     6  C   -0.345443
     7  C    0.535200
     8  O   -0.554929
     9  C    0.662364
    10  F   -0.258055
    11  F   -0.257943
    12  F   -0.256323
    13  H    0.243131
    14  O   -0.555408
    15  H    0.450588
 Sum of Mulliken charges =  -0.00000
 Mulliken charges with hydrogens summed into heavy atoms:
               1
     1  C    0.730540
     2  F   -0.263852
     3  F   -0.263847
     4  F   -0.291022
     5  C    0.424999
     6  C   -0.102311
     7  C    0.535200
     8  O   -0.554929
     9  C    0.662364
    10  F   -0.258055
    11  F   -0.257943
    12  F   -0.256323
    14  O   -0.104820
 Electronic spatial extent (au):  <R**2>=           2823.4582
 Charge=             -0.0000 electrons
 Dipole moment (field-independent basis, Debye):
    X=             -0.0957    Y=             -0.9368    Z=              0.0006  Tot=              0.9416
 Quadrupole moment (field-independent basis, Debye-Ang):
   XX=            -79.3951   YY=            -72.6281   ZZ=            -70.5054
   XY=             -0.6857   XZ=              0.0006   YZ=              0.0042
 Traceless Quadrupole moment (field-independent basis, Debye-Ang):
   XX=             -5.2189   YY=              1.5481   ZZ=              3.6708
   XY=             -0.6857   XZ=              0.0006   YZ=              0.0042
 Octapole moment (field-independent basis, Debye-Ang**2):
  XXX=             -0.2253  YYY=            -12.9931  ZZZ=             -0.0158  XYY=             -3.3196
  XXY=            -10.1612  XXZ=             -0.0002  XZZ=              1.5445  YZZ=             -1.2499
  YYZ=              0.0195  XYZ=              0.0094
 Hexadecapole moment (field-independent basis, Debye-Ang**3):
 XXXX=          -2327.2741 YYYY=           -441.0660 ZZZZ=           -190.8635 XXXY=             -2.9138
 XXXZ=              0.0282 YYYX=            -11.0171 YYYZ=              0.0067 ZZZX=             -0.0359
 ZZZY=              0.0067 XXYY=           -475.4754 XXZZ=           -420.0855 YYZZ=           -107.0661
 XXYZ=              0.0304 YYXZ=              0.0310 ZZXY=              5.7517
 N-N= 8.847792173289D+02 E-N=-3.995979216812D+03  KE= 9.364915270739D+02
 1\1\GINC-ARTEMIY-VIRTUALBOX\SP\RHF\GFHFB2\C5H2F6O2\ARTEMIY\24-Nov-2021
 \0\\#N Geom=AllCheck Guess=TCheck SCRF=Check HF/GFHFB2 SCF=Tight\\Titl
 e Card Required\\0,1\C,0,2.5219154628,0.2780897289,-0.0003194454\F,0,3
 .2260658681,-0.0632387823,-1.0808085013\F,0,3.2258201369,-0.0612246273
 ,1.0809717157\F,0,2.3608253466,1.6025951366,-0.0015691275\C,0,1.178207
 082,-0.4382645638,0.0002044117\C,0,-0.0081057423,0.2274523531,-0.00043
 64188\C,0,-1.2215710433,-0.5462355054,0.0001256705\O,0,-1.2614518496,-
 1.7755308425,0.0001839613\C,0,-2.5492796299,0.2472186769,-0.0002749924
 \F,0,-2.6068582176,1.0327915389,1.0841770042\F,0,-2.603141737,1.038485
 9461,-1.0807748607\F,0,-3.5980804722,-0.5577267569,-0.004169409\H,0,-0
 .0334643941,1.3058407121,-0.0013574341\O,0,1.3084224398,-1.7455447899,
 0.0014409591\H,0,0.3827151001,-2.1177106458,0.0019227471\\Version=ES64
 L-G16RevA.03\State=1-A\HF=-937.3052587\RMSD=6.568e-09\Dipole=0.037609,
 0.3685538,0.0000179\Quadrupole=-3.8800013,1.1508313,2.7291701,-0.51042
 29,-0.0001456,-0.002223\PG=C01 [X(C5H2F6O2)]\\@


 ACCORDING TO HEN3RY, LIFE IS MUCH LIKE A SEWER........
 YOU GET OUT OF IT JUST WHAT YOU PUT INTO IT...........
                         TOM LEHRER - (THE 3 IS SILENT)
 Diagonal vibrational polarizability:
        0.0000000       0.0000000       0.0000000
    1 imaginary frequencies ignored.
 
 Temperature=              298.150000 Pressure=                      1.000000
 E(ZPE)=                     0.076359 E(Thermal)=                    0.087146
 E(QCISD(T))=             -938.945419 E(Empiric)=                   -0.263986
 E(CCSD(T))=                -0.263986 E(Empiric)=                   -0.073437
 DE(Plus)=                  -0.617660 DE(2DF)=                      -1.050129
 E(Delta-G3XP)=             -0.106917 DE(HF)=                     -940.981190
 G4(0 K)=                 -940.970403 G4 Energy=                  -940.969459
 G4 Enthalpy=             -941.019448 G4 Free Energy=    
 1\1\GINC-ARTEMIY-VIRTUALBOX\Mixed\G4\G4\C5H2F6O2\ARTEMIY\24-Nov-2021\0
 \\# g4 geom=gic\\Title Card Required\\0,1\C,0,2.5219154628,0.278089728
 9,-0.0003194454\F,0,3.2260658681,-0.0632387823,-1.0808085013\F,0,3.225
 8201369,-0.0612246273,1.0809717157\F,0,2.3608253466,1.6025951366,-0.00
 15691275\C,0,1.178207082,-0.4382645638,0.0002044117\C,0,-0.0081057423,
 0.2274523531,-0.0004364188\C,0,-1.2215710433,-0.5462355054,0.000125670
 5\O,0,-1.2614518496,-1.7755308425,0.0001839613\C,0,-2.5492796299,0.247
 2186769,-0.0002749924\F,0,-2.6068582176,1.0327915389,1.0841770042\F,0,
 -2.603141737,1.0384859461,-1.0807748607\F,0,-3.5980804722,-0.557726756
 9,-0.004169409\H,0,-0.0334643941,1.3058407121,-0.0013574341\O,0,1.3084
 224398,-1.7455447899,0.0014409591\H,0,0.3827151001,-2.1177106458,0.001
 9227471\\Version=ES64L-G16RevA.03\State=1-A\MP2/GTBas1=-938.8607214\MP
 4/GTBas1=-938.9638888\CCSD(T)/G3Bas1=-938.9454191\MP2/GTBas2=-938.9279
 531\MP4/GTBas2=-939.0373259\MP2/GTBas3=-939.4414931\MP4/GTBas3=-939.58
 1549\HF/GTLargeXP=-937.2026687\MP2/GTLargeXP=-940.5588543\HF/GFHFB1=-9
 37.2874997\HF/GFHFB2=-937.3052587\G4=-940.98119\FreqCoord=4.7657295339
 ,0.5255134256,-0.0006036643,6.0963809506,-0.1195039789,-2.0424320605,6
 .0959165858,-0.1156977777,2.0427404912,4.461313333,3.0284658968,-0.002
 9652213,2.2264887029,-0.8281999956,0.0003862822,-0.0153176329,0.429822
 6538,-0.0008247119,-2.3084347136,-1.0322355048,0.0002374828,-2.3837985
 151,-3.355267018,0.0003476366,-4.8174403154,0.4671755923,-0.0005196603
 ,-4.9262480769,1.9516931524,2.0487976085,-4.9192249463,1.9624540224,-2
 .0423684891,-6.7993866666,-1.0539508229,-0.0078790412,-0.0632385397,2.
 4676813083,-0.0025651786,2.4725600665,-3.298601591,0.002723018,0.72322
 67229,-4.0018931316,0.0036334655\PG=C01 [X(C5H2F6O2)]\NImag=1\\0.58551
 539,0.02186863,0.57210169,-0.00002180,-0.00004787,0.51493275,-0.159986
 05,0.01789945,0.10217735,0.16608769,0.02148122,-0.08367409,-0.02987613
 ,-0.04942377,0.09877086,0.09924564,-0.02653423,-0.19568776,-0.14449000
 ,0.06889818,0.29771120,-0.15993370,0.01770164,-0.10219550,0.02411957,-
 0.00201132,0.00863936,0.16601645,0.02128765,-0.08356877,0.02966931,-0.
 00202658,0.01419034,-0.00281561,-0.04913610,0.09851535,-0.09926952,0.0
 2632633,-0.19583010,-0.00861079,0.00263184,-0.08410293,0.14454359,-0.0
 6853484,0.29802417,-0.08311964,-0.00014632,-0.00000048,0.00029718,0.03
 846193,0.01632021,0.00030427,0.03842039,-0.01639040,0.08536729,-0.0093
 3509,-0.28303825,0.00019269,0.02668745,-0.03881946,-0.03426874,0.02665
 079,-0.03866764,0.03433386,-0.04030396,0.40559632,0.00000733,0.0001943
 3,-0.07394190,0.01518774,-0.04707173,-0.00691741,-0.01523550,0.0471393
 8,-0.00707612,0.00003707,-0.00030809,0.07961459,-0.17878112,-0.0507895
 5,0.00003428,-0.02622372,-0.00581361,0.01834505,-0.02621139,-0.0058464
 0,-0.01833671,0.00801977,0.01092500,-0.00000915,0.74603951,-0.05033447
 ,-0.08488214,0.00001130,0.01189244,0.00628338,-0.00996768,0.01181434,0
 .00629086,0.00993278,-0.02624641,-0.04320632,0.00004430,-0.07875283,0.
 72135578,0.00003745,0.00001292,-0.06509226,0.03977458,0.00501810,-0.01
 360722,-0.03979856,-0.00505544,-0.01362960,0.00002449,0.00004865,0.007
 88953,0.00009542,-0.00048669,0.19690672,-0.00515827,0.01718303,-0.0000
 0992,-0.00620730,-0.00151786,0.00332746,-0.00620308,-0.00152348,-0.003
 32521,-0.00546440,-0.00306983,0.00000218,-0.35436808,0.09295421,-0.000
 09785,0.67096638,-0.00563596,0.01605001,-0.00000464,-0.00543274,-0.001
 39409,0.00371856,-0.00542788,-0.00140050,-0.00371556,0.00003439,-0.001
 02963,0.00000061,0.13344512,-0.19030835,0.00011230,-0.07200071,0.75687
 541,0.00000212,-0.00000448,0.01013517,-0.00145833,0.00009237,0.0006691
 2,0.00146682,-0.00008938,0.00067607,0.00000117,-0.00000011,-0.00040118
 ,-0.00012710,0.00010896,-0.05980094,0.00010364,-0.00053225,0.09531725,
 -0.01312329,0.00038814,-0.00000687,0.00263363,-0.00024853,-0.00053893,
 0.00262991,-0.00024794,0.00053874,0.00284815,0.00169744,-0.00000127,-0
 .05720833,0.01835249,-0.00001695,-0.21712253,-0.07063342,0.00007148,0.
 56932400,-0.00722226,-0.00679515,0.00000975,0.00420257,0.00042390,-0.0
 0225514,0.00420335,0.00042837,0.00225430,0.00024097,0.00147759,-0.0000
 0108,-0.01601750,0.06358076,-0.00005168,-0.02028280,-0.14483960,0.0000
 7249,0.02911798,0.88020566,0.00000756,0.00001772,0.00961726,-0.0027929
 5,-0.00046710,0.00042900,0.00278623,0.00046591,0.00042623,-0.00000022,
 -0.00000397,0.00016853,0.00000088,-0.00003679,0.00408641,0.00000036,0.
 00005516,-0.07197747,0.00000250,-0.00011985,0.21886952,0.00330134,0.00
 033498,-0.00000228,-0.00065991,-0.00028692,0.00012110,-0.00066044,-0.0
 0028736,-0.00012046,-0.00126827,-0.00139958,0.00000179,-0.00396527,0.0
 1718986,-0.00001842,0.01853812,-0.04275421,0.00001169,-0.11714149,-0.0
 2713553,0.00000051,0.12627371,0.00816858,0.00098542,0.00000049,-0.0027
 4227,0.00030541,0.00131788,-0.00274060,0.00030313,-0.00131793,-0.00148
 671,0.00048982,-0.00000046,0.02766667,-0.04323881,0.00003862,-0.064816
 12,-0.04886163,0.00000808,0.00499357,-0.63552194,0.00005730,0.03680149
 ,0.73906811,-0.00000627,-0.00000348,-0.00047876,0.00010616,0.00006235,
 0.00006636,-0.00010285,-0.00006235,0.00006769,0.00000002,-0.00000052,-
 0.00022830,-0.00001682,0.00003890,-0.00236501,0.00005231,0.00001766,0.
 01927486,-0.00003109,0.00001289,-0.06623891,-0.00000283,-0.00005717,0.
 03592513,-0.00608711,-0.00183694,0.00000093,0.00192249,0.00020599,-0.0
 0083474,0.00192263,0.00020761,0.00083515,0.00135241,0.00108255,-0.0000
 0087,-0.00811582,0.00563622,-0.00000700,-0.00903396,0.00963544,0.00000
 384,-0.17141978,0.02878881,-0.00001703,0.01118156,0.00740350,-0.000027
 68,0.60344056,0.00161120,0.00399746,-0.00000830,-0.00118829,-0.0005778
 2,0.00061404,-0.00119092,-0.00057910,-0.00061392,-0.00029077,-0.001526
 91,0.00000187,-0.00390811,-0.00626900,0.00001500,-0.01891578,0.0156231
 5,0.00001311,0.03855819,-0.07251610,0.00001565,0.02460412,-0.04287929,
 -0.00000545,0.00787969,0.55958647,0.00000184,-0.00000570,-0.00118138,0
 .00088187,-0.00003847,-0.00065867,-0.00088247,0.00003898,-0.00066041,-
 0.00000116,0.00000292,-0.00017405,-0.00000084,0.00001097,0.00263106,-0
 .00000139,-0.00000311,0.01233685,-0.00007034,0.00002653,-0.06909270,-0
 .00002189,0.00001793,0.01417255,0.00012652,0.00005899,0.48824301,0.001
 92181,0.00075943,0.00057874,-0.00077305,-0.00009326,0.00029122,-0.0004
 7491,-0.00007470,-0.00023203,-0.00038971,-0.00044711,-0.00001783,0.002
 48249,-0.00224760,0.00014926,-0.00441322,-0.00090797,-0.00168206,0.009
 25556,0.01889103,0.02316620,-0.00527455,0.00438160,-0.00176900,-0.0875
 1879,0.02348785,0.03133249,0.07100267,-0.00120849,-0.00135498,-0.00102
 158,0.00064070,0.00022829,-0.00013433,0.00035400,0.00017861,0.00027169
 ,0.00024128,0.00073433,0.00011760,-0.00065510,0.00209213,0.00110249,0.
 00486357,-0.00159052,0.00327147,-0.00366723,-0.01343529,-0.03045305,0.
 00639519,-0.00364259,0.00269308,0.02797271,-0.15492793,-0.10020643,-0.
 00407948,0.18412175,-0.00070645,-0.00070863,-0.00089276,0.00029887,0.0
 0014117,0.00007329,0.00031731,0.00007096,0.00033543,0.00016459,0.00038
 868,0.00014997,-0.00023721,0.00077744,0.00040693,0.00242981,-0.0000038
 3,0.00227760,-0.00467890,-0.01423872,-0.01347928,0.00620140,-0.0049155
 2,0.00087785,0.02928708,-0.09637986,-0.18834956,-0.01432959,0.15329348
 ,0.28874269,0.00192084,0.00075332,-0.00057383,-0.00047503,-0.00007385,
 0.00023150,-0.00077091,-0.00009301,-0.00029114,-0.00039008,-0.00044484
 ,0.00001799,0.00248288,-0.00222893,-0.00015528,-0.00442255,-0.00091905
 ,0.00163615,0.00930879,0.01895782,-0.02299642,-0.00527757,0.00438314,0
 .00175594,-0.08734530,0.02325009,-0.03079439,0.01497279,-0.00407566,0.
 00302308,0.07100062,-0.00120997,-0.00135919,0.00102625,0.00035361,0.00
 017923,-0.00027119,0.00064110,0.00022974,0.00013328,0.00024118,0.00073
 872,-0.00011916,-0.00066294,0.00209292,-0.00110516,0.00486486,-0.00158
 381,-0.00327777,-0.00384981,-0.01366941,0.03045046,0.00647506,-0.00367
 789,-0.00268028,0.02779859,-0.15591776,0.10043991,-0.00403644,0.024956
 42,-0.00782872,-0.00362610,0.18571341,0.00069925,0.00070693,-0.0008877
 1,-0.00031489,-0.00007086,0.00033275,-0.00029517,-0.00014114,0.0000747
 6,-0.00016292,-0.00038932,0.00014995,0.00023706,-0.00076214,0.00040313
 ,-0.00240723,-0.00000655,0.00226134,0.00478331,0.01430635,-0.01330794,
 -0.00621221,0.00489795,0.00085292,-0.02881183,0.09660595,-0.18749589,-
 0.00271423,0.00838337,-0.08238009,0.01356467,-0.15382062,0.28721340,0.
 00261002,0.00164540,-0.00000495,-0.00122884,-0.00014724,0.00068380,-0.
 00122951,-0.00014862,-0.00068304,-0.00055626,-0.00040014,0.00000069,-0
 .00043455,-0.00602518,0.00001185,-0.00820532,0.00863193,-0.00000341,-0
 .04102958,-0.03657171,-0.00015906,0.00500982,0.00152750,0.00002063,-0.
 25220040,-0.09221691,-0.00057131,0.00002354,-0.02704354,-0.02163869,-0
 .00017850,-0.02726741,0.02151279,0.29722222,0.00026181,-0.00044354,-0.
 00000023,-0.00009006,0.00008851,0.00006493,-0.00008969,0.00008829,-0.0
 0006450,-0.00006018,0.00026084,-0.00000022,0.00071812,-0.00086362,-0.0
 0000073,0.00010269,0.00004356,-0.00000093,0.00257249,-0.00272677,-0.00
 000831,0.00583493,0.00548657,0.00001654,-0.10886549,-0.14153128,-0.000
 35370,-0.03798172,-0.03776279,-0.03094022,-0.03825513,-0.03811756,0.03
 064547,0.17574730,0.21388896,0.00000481,0.00000294,-0.00008855,-0.0000
 5169,0.00001378,0.00007593,0.00004709,-0.00001419,0.00007346,-0.000000
 86,-0.00000062,0.00003571,-0.00000101,-0.00001375,-0.00019158,-0.00001
 527,0.00002019,0.00021566,-0.00008425,-0.00008061,0.00899430,0.0000206
 1,0.00000105,-0.00090279,-0.00055888,-0.00031288,-0.07453477,-0.033747
 88,-0.03681238,-0.00671150,0.03355706,0.03654965,-0.00616583,0.0008318
 9,0.00064127,0.07966066,0.00001622,0.00367365,-0.00000358,0.00032420,-
 0.00055743,-0.00044335,0.00032375,-0.00055670,0.00044431,-0.00169960,-
 0.00267600,0.00000255,0.00575564,0.02894777,-0.00002388,-0.05587958,0.
 00603478,0.00001247,0.00906416,-0.02525615,0.00001900,-0.00599313,-0.0
 0436865,-0.00000058,-0.00039064,-0.00240126,0.00001302,-0.00040595,0.0
 0094992,0.00055065,-0.00041145,0.00096989,-0.00056496,0.00069821,0.000
 58555,-0.00000016,0.05591974,0.00029367,-0.00142645,-0.00000235,-0.000
 04943,0.00011346,0.00010999,-0.00005168,0.00011311,-0.00011081,-0.0031
 0150,0.00042745,-0.00000086,-0.00089980,-0.01172571,0.00000623,0.00826
 204,-0.35505918,0.00028325,0.00403387,-0.00965224,0.00000166,-0.002051
 46,0.00019024,0.00000599,-0.00072295,-0.00135553,0.00000554,0.00071884
 ,0.00049669,0.00011578,0.00074052,0.00050547,-0.00011601,0.00016278,0.
 00031613,0.00000035,-0.00778493,0.37427330,-0.00000173,-0.00000191,-0.
 00343054,0.00118408,0.00006107,-0.00040788,-0.00118281,-0.00006197,-0.
 00040742,0.00000293,-0.00000061,-0.00052872,-0.00000319,0.00001349,-0.
 00257279,0.00000742,0.00028590,-0.02500817,-0.00000372,0.00000679,-0.0
 0406056,-0.00000387,0.00000098,0.00541287,0.00000087,-0.00000443,0.001
 84704,-0.00030661,-0.00088909,-0.00100444,0.00030729,0.00089077,-0.001
 00568,0.00000029,0.00000173,-0.00032983,-0.00000124,-0.00030493,0.0222
 0220,0.00780900,-0.03164231,0.00002751,0.00067674,-0.00040184,-0.00114
 798,0.00067455,-0.00040102,0.00114829,-0.00615795,-0.01182257,0.000010
 17,-0.12885543,0.02117572,-0.00001628,0.01503856,0.04223085,-0.0000317
 3,-0.00772102,-0.02009858,0.00000165,-0.03953969,0.01942418,-0.0000370
 9,0.00328696,-0.00012240,-0.00000444,-0.00116711,0.00133146,0.00109476
 ,-0.00116778,0.00134069,-0.00109479,0.00003715,0.00059337,0.00000174,-
 0.00525269,0.00105134,-0.00000324,0.47918836,-0.00288769,-0.04117522,0
 .00003922,-0.00110947,0.00311574,0.00158352,-0.00110618,0.00311247,-0.
 00158585,-0.00500726,-0.00208822,0.00000289,0.03638125,-0.38090782,0.0
 0029804,0.05600844,-0.04354301,0.00006138,-0.03338908,-0.04316271,0.00
 001789,-0.01588397,0.04113181,-0.00003424,-0.00598548,-0.00011672,0.00
 000526,0.00185473,-0.00017627,0.00026810,0.00185585,-0.00016933,-0.000
 28206,0.00296648,0.00127624,0.00000682,0.00330218,0.00248191,0.0000032
 3,0.06028404,0.54443036,0.00000142,0.00003627,-0.00209351,-0.00078344,
 0.00036972,0.00183327,0.00078577,-0.00037340,0.00183784,0.00000492,0.0
 0000396,0.00142441,-0.00003011,0.00030888,-0.05795774,-0.00005629,0.00
 006113,0.01741385,0.00003354,0.00003754,-0.00536082,0.00000205,-0.0000
 3823,0.00505737,0.00000678,-0.00000045,-0.00016769,-0.00033029,-0.0001
 0369,0.00001639,0.00032958,0.00010368,0.00001614,-0.00000305,-0.000000
 76,0.00003489,-0.00000490,0.00000800,0.01019857,-0.00009434,-0.0004785
 5,0.05274254,0.00309458,0.00220743,0.00000040,-0.00050760,0.00042647,0
 .00024966,-0.00050717,0.00042626,-0.00025078,0.00085684,0.00285589,-0.
 00000289,0.01938344,-0.04212765,0.00004119,-0.02806478,0.00369941,-0.0
 0000676,0.01970182,0.04818202,-0.00001921,0.01547579,-0.03859589,0.000
 05916,-0.00099481,0.00084331,-0.00000751,0.00075841,-0.00201934,-0.001
 77671,0.00075327,-0.00203232,0.00178114,-0.00053800,-0.00107398,-0.000
 00319,-0.00206888,-0.00060131,0.00000355,-0.31684966,-0.09728385,0.000
 13836,0.28950675,0.00286117,-0.00541679,0.00001207,0.00038639,0.000766
 34,-0.00006018,0.00038914,0.00076573,0.00005933,-0.00099702,-0.0013486
 4,0.00000062,-0.04579034,-0.04029407,0.00004735,-0.00211227,0.00101819
 ,-0.00000620,0.01232183,-0.00379708,0.00000732,-0.00783661,-0.01013836
 ,-0.00000393,0.00079974,-0.00100965,0.00000037,-0.00022519,0.00008214,
 -0.00004010,-0.00022417,0.00007903,0.00004268,-0.00086067,-0.00000356,
 -0.00000163,-0.00086262,0.00030136,-0.00000103,-0.08294293,-0.08420924
 ,0.00006591,0.12509354,0.14320460,-0.00000165,0.00000884,0.00492005,-0
 .00110856,0.00023570,0.00019095,0.00110670,-0.00023623,0.00019093,0.00
 000066,0.00000123,-0.00016501,0.00004944,0.00002003,0.00289335,-0.0000
 1004,-0.00000555,-0.00339000,0.00000277,0.00002044,0.00092642,0.000022
 81,-0.00001098,-0.01149384,-0.00000315,0.00000067,0.00308463,-0.000388
 38,0.00048737,-0.00006252,0.00038780,-0.00049112,-0.00006124,0.0000015
 8,-0.00000034,-0.00016575,0.00000065,-0.00000182,-0.00090465,0.0001457
 8,0.00009434,-0.02499551,-0.00020641,-0.00012257,0.02903218\\-0.000003
 00,0.00000013,0.00000093,0.00000278,-0.00002104,0.00000777,0.00000561,
 -0.00002175,-0.00000472,-0.00001304,0.00003848,0.00000034,-0.00003616,
 0.00017488,-0.00001439,0.00000899,-0.00009766,-0.00003571,0.00000678,-
 0.00000479,0.00012786,0.00000556,0.00004358,-0.00007237,-0.00003027,0.
 00000447,-0.00002635,0.00002614,0.00000786,0.00001476,0.00002302,0.000
 01795,-0.00002201,-0.00001234,-0.00003974,0.00000257,0.00000397,0.0000
 0763,-0.00000116,-0.00004005,-0.00013494,-0.00001040,0.00005200,0.0000
 2495,0.00003290\\\@
 Job cpu time:       0 days 17 hours 34 minutes 26.4 seconds.
 Elapsed time:       0 days  2 hours 30 minutes 44.5 seconds.
 File lengths (MBytes):  RWF= 134753 Int=      0 D2E=      0 Chk=    119 Scr=      1
 Normal termination of Gaussian 16 at Wed Nov 24 09:02:59 2021.
