 Entering Gaussian System, Link 0=/home/artemiy/opt/gaussian/g16/g16
 Input=1,1,1-Ethanetricarbonitrile_G4.gjf
 Output=1,1,1-Ethanetricarbonitrile_G4.log
 Initial command:
 /home/artemiy/opt/gaussian/g16/l1.exe "/home/artemiy/opt/gaussian/scr/Gau-19923.inp" -scrdir="/home/artemiy/opt/gaussian/scr/"
 Entering Link 1 = /home/artemiy/opt/gaussian/g16/l1.exe PID=     19926.
  
 Copyright (c) 1988,1990,1992,1993,1995,1998,2003,2009,2016,
            Gaussian, Inc.  All Rights Reserved.
  
 This is part of the Gaussian(R) 16 program.  It is based on
 the Gaussian(R) 09 system (copyright 2009, Gaussian, Inc.),
 the Gaussian(R) 03 system (copyright 2003, Gaussian, Inc.),
 the Gaussian(R) 98 system (copyright 1998, Gaussian, Inc.),
 the Gaussian(R) 94 system (copyright 1995, Gaussian, Inc.),
 the Gaussian 92(TM) system (copyright 1992, Gaussian, Inc.),
 the Gaussian 90(TM) system (copyright 1990, Gaussian, Inc.),
 the Gaussian 88(TM) system (copyright 1988, Gaussian, Inc.),
 the Gaussian 86(TM) system (copyright 1986, Carnegie Mellon
 University), and the Gaussian 82(TM) system (copyright 1983,
 Carnegie Mellon University). Gaussian is a federally registered
 trademark of Gaussian, Inc.
  
 This software contains proprietary and confidential information,
 including trade secrets, belonging to Gaussian, Inc.
  
 This software is provided under written license and may be
 used, copied, transmitted, or stored only in accord with that
 written license.
  
 The following legend is applicable only to US Government
 contracts under FAR:
  
                    RESTRICTED RIGHTS LEGEND
  
 Use, reproduction and disclosure by the US Government is
 subject to restrictions as set forth in subparagraphs (a)
 and (c) of the Commercial Computer Software - Restricted
 Rights clause in FAR 52.227-19.
  
 Gaussian, Inc.
 340 Quinnipiac St., Bldg. 40, Wallingford CT 06492
  
  
 ---------------------------------------------------------------
 Warning -- This program may not be used in any manner that
 competes with the business of Gaussian, Inc. or will provide
 assistance to any competitor of Gaussian, Inc.  The licensee
 of this program is prohibited from giving any competitor of
 Gaussian, Inc. access to this program.  By using this program,
 the user acknowledges that Gaussian, Inc. is engaged in the
 business of creating and licensing software in the field of
 computational chemistry and represents and warrants to the
 licensee that it is not a competitor of Gaussian, Inc. and that
 it will not use this program in any manner prohibited above.
 ---------------------------------------------------------------
  

 Cite this work as:
 Gaussian 16, Revision A.03,
 M. J. Frisch, G. W. Trucks, H. B. Schlegel, G. E. Scuseria, 
 M. A. Robb, J. R. Cheeseman, G. Scalmani, V. Barone, 
 G. A. Petersson, H. Nakatsuji, X. Li, M. Caricato, A. V. Marenich, 
 J. Bloino, B. G. Janesko, R. Gomperts, B. Mennucci, H. P. Hratchian, 
 J. V. Ortiz, A. F. Izmaylov, J. L. Sonnenberg, D. Williams-Young, 
 F. Ding, F. Lipparini, F. Egidi, J. Goings, B. Peng, A. Petrone, 
 T. Henderson, D. Ranasinghe, V. G. Zakrzewski, J. Gao, N. Rega, 
 G. Zheng, W. Liang, M. Hada, M. Ehara, K. Toyota, R. Fukuda, 
 J. Hasegawa, M. Ishida, T. Nakajima, Y. Honda, O. Kitao, H. Nakai, 
 T. Vreven, K. Throssell, J. A. Montgomery, Jr., J. E. Peralta, 
 F. Ogliaro, M. J. Bearpark, J. J. Heyd, E. N. Brothers, K. N. Kudin, 
 V. N. Staroverov, T. A. Keith, R. Kobayashi, J. Normand, 
 K. Raghavachari, A. P. Rendell, J. C. Burant, S. S. Iyengar, 
 J. Tomasi, M. Cossi, J. M. Millam, M. Klene, C. Adamo, R. Cammi, 
 J. W. Ochterski, R. L. Martin, K. Morokuma, O. Farkas, 
 J. B. Foresman, and D. J. Fox, Gaussian, Inc., Wallingford CT, 2016.
 
 ******************************************
 Gaussian 16:  ES64L-G16RevA.03 25-Dec-2016
                16-Jun-2022 
 ******************************************
 %mem=10GB
 %nprocshared=6
 Will use up to    6 processors via shared memory.
 -------------
 # g4 geom=gic
 -------------
 1/18=20,19=15,26=3,38=1,145=2/1,3;
 2/9=110,12=2,17=6,18=5,40=1/2;
 3/5=35,7=104,11=2,25=1,30=1,71=1,74=-5/1,2,3;
 4//1;
 5/5=2,38=5/2;
 6/7=2,8=2,9=2,10=2,28=1/1;
 7//1,2,3,16;
 1/18=20,19=15,26=3,145=2/3(2);
 2/9=110/2;
 99//99;
 2/9=110/2;
 3/5=35,7=104,11=2,25=1,30=1,71=1,74=-5/1,2,3;
 4/5=5,16=3,69=1/1;
 5/5=2,38=5/2;
 7//1,2,3,16;
 1/18=20,19=15,26=3,145=2/3(-5);
 2/9=110/2;
 6/7=2,8=2,9=2,10=2,19=2,28=1/1;
 99/9=1/99;
 -------------------
 CAS 10359-20-3
 -------------------
 Symbolic Z-matrix:
 Charge =  0 Multiplicity = 1
 C                     0.       0.         0.22279 
 C                     0.       -0.00001   1.76896 
 H                     0.94228   0.41792   2.128 
 H                    -0.83308   0.60706   2.12801 
 H                    -0.1092   -1.02502   2.128 
 C                    -1.26827  -0.5624   -0.27748 
 C                     0.14707   1.37955  -0.27747 
 C                     1.12119  -0.81715  -0.27749 
 N                    -2.297    -1.01857  -0.63524 
 N                     0.26639   2.49855  -0.63523 
 N                     2.03062  -1.47997  -0.63524 
 
 Initializing the GIC definitions file.

 GradGradGradGradGradGradGradGradGradGradGradGradGradGradGradGradGradGrad
 Berny optimization.
 Initialization pass.
                           ----------------------------
                           !    Initial Parameters    !
                           ! (Angstroms and Degrees)  !
 --------------------------                            --------------------------
 ! Name  Definition              Value          Derivative Info.                !
 --------------------------------------------------------------------------------
 ! R1    R(1,2)                  1.5462         estimate D2E/DX2                !
 ! R2    R(1,6)                  1.4748         estimate D2E/DX2                !
 ! R3    R(1,7)                  1.4748         estimate D2E/DX2                !
 ! R4    R(1,8)                  1.4748         estimate D2E/DX2                !
 ! R5    R(2,3)                  1.0915         estimate D2E/DX2                !
 ! R6    R(2,4)                  1.0915         estimate D2E/DX2                !
 ! R7    R(2,5)                  1.0915         estimate D2E/DX2                !
 ! R8    R(6,9)                  1.1808         estimate D2E/DX2                !
 ! R9    R(7,10)                 1.1808         estimate D2E/DX2                !
 ! R10   R(8,11)                 1.1808         estimate D2E/DX2                !
 ! A1    A(2,1,6)              109.8288         estimate D2E/DX2                !
 ! A2    A(2,1,7)              109.8289         estimate D2E/DX2                !
 ! A3    A(2,1,8)              109.8288         estimate D2E/DX2                !
 ! A4    A(6,1,7)              109.1113         estimate D2E/DX2                !
 ! A5    A(6,1,8)              109.1112         estimate D2E/DX2                !
 ! A6    A(7,1,8)              109.1113         estimate D2E/DX2                !
 ! A7    A(1,2,3)              109.2039         estimate D2E/DX2                !
 ! A8    A(1,2,4)              109.2039         estimate D2E/DX2                !
 ! A9    A(1,2,5)              109.204          estimate D2E/DX2                !
 ! A10   A(3,2,4)              109.7372         estimate D2E/DX2                !
 ! A11   A(3,2,5)              109.7372         estimate D2E/DX2                !
 ! A12   A(4,2,5)              109.7372         estimate D2E/DX2                !
 ! A13   L(1,6,9,4,-1)         177.9975         estimate D2E/DX2                !
 ! A14   L(1,6,9,4,-2)         181.107          estimate D2E/DX2                !
 ! A15   L(1,7,10,3,-1)        177.9979         estimate D2E/DX2                !
 ! A16   L(1,7,10,3,-2)        181.1067         estimate D2E/DX2                !
 ! A17   L(1,8,11,5,-1)        177.9972         estimate D2E/DX2                !
 ! A18   L(1,8,11,5,-2)        181.1077         estimate D2E/DX2                !
 ! D1    D(6,1,2,3)           -179.9958         estimate D2E/DX2                !
 ! D2    D(6,1,2,4)            -59.9958         estimate D2E/DX2                !
 ! D3    D(6,1,2,5)             60.0043         estimate D2E/DX2                !
 ! D4    D(7,1,2,3)            -59.9958         estimate D2E/DX2                !
 ! D5    D(7,1,2,4)             60.0042         estimate D2E/DX2                !
 ! D6    D(7,1,2,5)           -179.9957         estimate D2E/DX2                !
 ! D7    D(8,1,2,3)             60.0043         estimate D2E/DX2                !
 ! D8    D(8,1,2,4)           -179.9957         estimate D2E/DX2                !
 ! D9    D(8,1,2,5)            -59.9957         estimate D2E/DX2                !
 --------------------------------------------------------------------------------
 Trust Radius=3.00D-01 FncErr=1.00D-07 GrdErr=1.00D-06 EigMax=2.50D+02 EigMin=1.00D-04
 Number of steps in this run=     47 maximum allowed number of steps=    100.
 GradGradGradGradGradGradGradGradGradGradGradGradGradGradGradGradGradGrad

                          Input orientation:                          
 ---------------------------------------------------------------------
 Center     Atomic      Atomic             Coordinates (Angstroms)
 Number     Number       Type             X           Y           Z
 ---------------------------------------------------------------------
      1          6           0        0.000000   -0.000001    0.222793
      2          6           0        0.000003   -0.000012    1.768961
      3          1           0        0.942284    0.417919    2.128005
      4          1           0       -0.833077    0.607058    2.128011
      5          1           0       -0.109195   -1.025019    2.127998
      6          6           0       -1.268266   -0.562404   -0.277480
      7          6           0        0.147073    1.379554   -0.277471
      8          6           0        1.121188   -0.817145   -0.277487
      9          7           0       -2.297004   -1.018571   -0.635236
     10          7           0        0.266388    2.498550   -0.635228
     11          7           0        2.030616   -1.479967   -0.635238
 ---------------------------------------------------------------------
                    Distance matrix (angstroms):
                    1          2          3          4          5
     1  C    0.000000
     2  C    1.546168   0.000000
     3  H    2.166192   1.091546   0.000000
     4  H    2.166193   1.091546   1.785408   0.000000
     5  H    2.166193   1.091545   1.785407   1.785408   0.000000
     6  C    1.474811   2.472390   3.410854   2.709874   2.709941
     7  C    1.474811   2.472391   2.709874   2.709942   3.410854
     8  C    1.474811   2.472390   2.709941   3.410854   2.709873
     9  N    2.655170   3.477624   4.493550   3.524384   3.524487
    10  N    2.655168   3.477628   3.524389   3.524494   4.493553
    11  N    2.655168   3.477618   3.524479   4.493546   3.524378
                    6          7          8          9         10
     6  C    0.000000
     7  C    2.402995   0.000000
     8  C    2.402995   2.402995   0.000000
     9  N    1.180838   3.442748   3.442760   0.000000
    10  N    3.442758   1.180838   3.442745   4.352140   0.000000
    11  N    3.442751   3.442759   1.180838   4.352147   4.352137
                   11
    11  N    0.000000
 Stoichiometry    C5H3N3
 Framework group  C1[X(C5H3N3)]
 Deg. of freedom    27
 Full point group                 C1      NOp   1
 Largest Abelian subgroup         C1      NOp   1
 Largest concise Abelian subgroup C1      NOp   1
                         Standard orientation:                         
 ---------------------------------------------------------------------
 Center     Atomic      Atomic             Coordinates (Angstroms)
 Number     Number       Type             X           Y           Z
 ---------------------------------------------------------------------
      1          6           0        0.000000   -0.000001    0.222793
      2          6           0        0.000003   -0.000012    1.768961
      3          1           0        0.946513    0.408252    2.128005
      4          1           0       -0.826819    0.615554    2.128011
      5          1           0       -0.119682   -1.023847    2.127998
      6          6           0       -1.273956   -0.549392   -0.277480
      7          6           0        0.161187    1.377976   -0.277471
      8          6           0        1.112765   -0.828579   -0.277487
      9          7           0       -2.307310   -0.995005   -0.635236
     10          7           0        0.291950    2.495692   -0.635228
     11          7           0        2.015360   -1.500675   -0.635238
 ---------------------------------------------------------------------
 Rotational constants (GHZ):           2.1053254           2.1053194           1.4963582
 Standard basis: GTBas3 (6D, 7F)
 There are   263 symmetry adapted cartesian basis functions of A   symmetry.
 There are   239 symmetry adapted basis functions of A   symmetry.
   239 basis functions,   373 primitive gaussians,   263 cartesian basis functions
    27 alpha electrons       27 beta electrons
       nuclear repulsion energy       287.9440828925 Hartrees.
 NAtoms=   11 NActive=   11 NUniq=   11 SFac= 1.00D+00 NAtFMM=   60 NAOKFM=F Big=F
 Integral buffers will be    131072 words long.
 Raffenetti 2 integral format.
 Two-electron integral symmetry is turned on.
 One-electron integrals computed using PRISM.
 NBasis=   239 RedAO= T EigKep=  1.03D-04  NBF=   239
 NBsUse=   239 1.00D-06 EigRej= -1.00D+00 NBFU=   239
 ExpMin= 1.61D-01 ExpMax= 4.17D+03 ExpMxC= 6.27D+02 IAcc=3 IRadAn=         5 AccDes= 0.00D+00
 Harris functional with IExCor=  402 and IRadAn=       5 diagonalized for initial guess.
 HarFok:  IExCor=  402 AccDes= 0.00D+00 IRadAn=         5 IDoV= 1 UseB2=F ITyADJ=14
 ICtDFT=  3500011 ScaDFX=  1.000000  1.000000  1.000000  1.000000
 FoFCou: FMM=F IPFlag=           0 FMFlag=      100000 FMFlg1=           0
         NFxFlg=           0 DoJE=T BraDBF=F KetDBF=T FulRan=T
         wScrn=  0.000000 ICntrl=       500 IOpCl=  0 I1Cent=   200000004 NGrid=           0
         NMat0=    1 NMatS0=      1 NMatT0=    0 NMatD0=    1 NMtDS0=    0 NMtDT0=    0
 Petite list used in FoFCou.
 Keep R1 ints in memory in canonical form, NReq=420486520.
 Requested convergence on RMS density matrix=1.00D-08 within 128 cycles.
 Requested convergence on MAX density matrix=1.00D-06.
 Requested convergence on             energy=1.00D-06.
 No special actions if energy rises.
 Integral accuracy reduced to 1.0D-05 until final iterations.
 Initial convergence to 1.0D-05 achieved.  Increase integral accuracy.
 SCF Done:  E(RB3LYP) =  -356.521976466     A.U. after   13 cycles
            NFock= 13  Conv=0.38D-08     -V/T= 2.0082

 **********************************************************************

            Population analysis using the SCF density.

 **********************************************************************

 Orbital symmetries:
       Occupied  (A) (A) (A) (A) (A) (A) (A) (A) (A) (A) (A) (A)
                 (A) (A) (A) (A) (A) (A) (A) (A) (A) (A) (A) (A)
                 (A) (A) (A)
       Virtual   (A) (A) (A) (A) (A) (A) (A) (A) (A) (A) (A) (A)
                 (A) (A) (A) (A) (A) (A) (A) (A) (A) (A) (A) (A)
                 (A) (A) (A) (A) (A) (A) (A) (A) (A) (A) (A) (A)
                 (A) (A) (A) (A) (A) (A) (A) (A) (A) (A) (A) (A)
                 (A) (A) (A) (A) (A) (A) (A) (A) (A) (A) (A) (A)
                 (A) (A) (A) (A) (A) (A) (A) (A) (A) (A) (A) (A)
                 (A) (A) (A) (A) (A) (A) (A) (A) (A) (A) (A) (A)
                 (A) (A) (A) (A) (A) (A) (A) (A) (A) (A) (A) (A)
                 (A) (A) (A) (A) (A) (A) (A) (A) (A) (A) (A) (A)
                 (A) (A) (A) (A) (A) (A) (A) (A) (A) (A) (A) (A)
                 (A) (A) (A) (A) (A) (A) (A) (A) (A) (A) (A) (A)
                 (A) (A) (A) (A) (A) (A) (A) (A) (A) (A) (A) (A)
                 (A) (A) (A) (A) (A) (A) (A) (A) (A) (A) (A) (A)
                 (A) (A) (A) (A) (A) (A) (A) (A) (A) (A) (A) (A)
                 (A) (A) (A) (A) (A) (A) (A) (A) (A) (A) (A) (A)
                 (A) (A) (A) (A) (A) (A) (A) (A) (A) (A) (A) (A)
                 (A) (A) (A) (A) (A) (A) (A) (A) (A) (A) (A) (A)
                 (A) (A) (A) (A) (A) (A) (A) (A)
 The electronic state is 1-A.
 Alpha  occ. eigenvalues --  -14.38792 -14.38788 -14.38788 -10.36044 -10.27879
 Alpha  occ. eigenvalues --  -10.27879 -10.27879 -10.25643  -0.97034  -0.93685
 Alpha  occ. eigenvalues --   -0.93685  -0.88957  -0.74901  -0.63976  -0.63976
 Alpha  occ. eigenvalues --   -0.51460  -0.46216  -0.46216  -0.41254  -0.40905
 Alpha  occ. eigenvalues --   -0.40905  -0.38769  -0.38769  -0.36745  -0.36745
 Alpha  occ. eigenvalues --   -0.36560  -0.36387
 Alpha virt. eigenvalues --   -0.04830  -0.04767  -0.04766  -0.00057  -0.00056
 Alpha virt. eigenvalues --    0.03462   0.05560   0.11167   0.11563   0.11563
 Alpha virt. eigenvalues --    0.15358   0.15358   0.17178   0.31358   0.31358
 Alpha virt. eigenvalues --    0.33986   0.42719   0.42719   0.43696   0.47300
 Alpha virt. eigenvalues --    0.47381   0.47381   0.48153   0.48153   0.54140
 Alpha virt. eigenvalues --    0.58604   0.59287   0.59288   0.62151   0.62436
 Alpha virt. eigenvalues --    0.62699   0.62699   0.67210   0.67210   0.68596
 Alpha virt. eigenvalues --    0.68596   0.71468   0.71468   0.72483   0.73352
 Alpha virt. eigenvalues --    0.73988   0.73988   0.76649   0.78992   0.78993
 Alpha virt. eigenvalues --    0.83113   0.83113   0.84296   0.84593   0.87506
 Alpha virt. eigenvalues --    0.87507   0.90200   0.97444   0.98547   0.98547
 Alpha virt. eigenvalues --    1.10167   1.10905   1.10905   1.18278   1.21092
 Alpha virt. eigenvalues --    1.21092   1.29617   1.29618   1.30703   1.30704
 Alpha virt. eigenvalues --    1.31947   1.33589   1.36862   1.36863   1.37785
 Alpha virt. eigenvalues --    1.44611   1.44611   1.46999   1.54406   1.54406
 Alpha virt. eigenvalues --    1.60042   1.61491   1.66962   1.66962   1.75795
 Alpha virt. eigenvalues --    1.78686   1.82626   1.82626   1.83368   1.88931
 Alpha virt. eigenvalues --    1.89157   1.89157   1.97387   1.97387   2.23328
 Alpha virt. eigenvalues --    2.27073   2.27073   2.35775   2.44067   2.44067
 Alpha virt. eigenvalues --    2.57392   2.61776   2.61776   2.70756   2.71556
 Alpha virt. eigenvalues --    2.71556   2.73995   2.74694   2.74694   2.75476
 Alpha virt. eigenvalues --    2.79451   2.79451   2.82088   2.83599   2.83599
 Alpha virt. eigenvalues --    2.85158   2.90093   2.90093   2.95918   2.95918
 Alpha virt. eigenvalues --    3.11135   3.13970   3.14529   3.14530   3.16477
 Alpha virt. eigenvalues --    3.16477   3.26286   3.29185   3.41755   3.44221
 Alpha virt. eigenvalues --    3.44221   3.61431   3.61596   3.61596   3.61668
 Alpha virt. eigenvalues --    3.61786   3.61786   3.62557   3.62557   3.63587
 Alpha virt. eigenvalues --    3.67834   3.67834   3.69924   3.72118   3.72118
 Alpha virt. eigenvalues --    3.75417   3.78603   3.79600   3.79600   3.88653
 Alpha virt. eigenvalues --    3.92845   3.92845   3.96682   4.06549   4.06549
 Alpha virt. eigenvalues --    4.09444   4.09444   4.11799   4.12079   4.12079
 Alpha virt. eigenvalues --    4.13552   4.18355   4.18355   4.21500   4.23065
 Alpha virt. eigenvalues --    4.23065   4.25003   4.30333   4.31393   4.31454
 Alpha virt. eigenvalues --    4.31454   4.36495   4.36495   4.37839   4.45448
 Alpha virt. eigenvalues --    4.47798   4.47798   4.49718   4.49718   4.65506
 Alpha virt. eigenvalues --    4.65506   4.73661   4.73661   4.74455   4.77061
 Alpha virt. eigenvalues --    4.77061   4.82124   4.82124   4.82531   4.98008
 Alpha virt. eigenvalues --    4.98008   4.99554   5.20118   5.21002   5.21003
 Alpha virt. eigenvalues --    5.29649   5.29650   5.31963   5.31963   5.36231
 Alpha virt. eigenvalues --    5.37608   5.62136   6.05780   6.22403   6.22403
 Alpha virt. eigenvalues --    7.28388  10.17514  10.82181  10.82181  11.33084
 Alpha virt. eigenvalues --   11.39133  11.39133  11.64708  12.99639  17.50457
 Alpha virt. eigenvalues --   17.50467  21.12789
          Condensed to atoms (all electrons):
               1          2          3          4          5          6
     1  C    4.728486   0.399132  -0.018505  -0.018505  -0.018505   0.390881
     2  C    0.399132   5.000706   0.372843   0.372843   0.372843  -0.037346
     3  H   -0.018505   0.372843   0.519641  -0.023475  -0.023475   0.004121
     4  H   -0.018505   0.372843  -0.023475   0.519641  -0.023475  -0.002623
     5  H   -0.018505   0.372843  -0.023475  -0.023475   0.519641  -0.002623
     6  C    0.390881  -0.037346   0.004121  -0.002623  -0.002623   4.418029
     7  C    0.390881  -0.037346  -0.002623  -0.002623   0.004121  -0.044197
     8  C    0.390881  -0.037347  -0.002623   0.004121  -0.002623  -0.044196
     9  N   -0.012127  -0.002217   0.000019   0.000287   0.000287   0.980778
    10  N   -0.012127  -0.002216   0.000287   0.000287   0.000019  -0.005023
    11  N   -0.012127  -0.002217   0.000287   0.000019   0.000287  -0.005023
               7          8          9         10         11
     1  C    0.390881   0.390881  -0.012127  -0.012127  -0.012127
     2  C   -0.037346  -0.037347  -0.002217  -0.002216  -0.002217
     3  H   -0.002623  -0.002623   0.000019   0.000287   0.000287
     4  H   -0.002623   0.004121   0.000287   0.000287   0.000019
     5  H    0.004121  -0.002623   0.000287   0.000019   0.000287
     6  C   -0.044197  -0.044196   0.980778  -0.005023  -0.005023
     7  C    4.418026  -0.044195  -0.005024   0.980780  -0.005023
     8  C   -0.044195   4.418024  -0.005023  -0.005023   0.980781
     9  N   -0.005024  -0.005023   6.361184  -0.000059  -0.000059
    10  N    0.980780  -0.005023  -0.000059   6.361180  -0.000059
    11  N   -0.005023   0.980781  -0.000059  -0.000059   6.361180
 Mulliken charges:
               1
     1  C   -0.208364
     2  C   -0.399678
     3  H    0.173504
     4  H    0.173504
     5  H    0.173504
     6  C    0.347223
     7  C    0.347223
     8  C    0.347223
     9  N   -0.318047
    10  N   -0.318045
    11  N   -0.318047
 Sum of Mulliken charges =  -0.00000
 Mulliken charges with hydrogens summed into heavy atoms:
               1
     1  C   -0.208364
     2  C    0.120835
     6  C    0.347223
     7  C    0.347223
     8  C    0.347223
     9  N   -0.318047
    10  N   -0.318045
    11  N   -0.318047
 Electronic spatial extent (au):  <R**2>=            873.3624
 Charge=             -0.0000 electrons
 Dipole moment (field-independent basis, Debye):
    X=             -0.0000    Y=             -0.0000    Z=              3.6556  Tot=              3.6556
 Quadrupole moment (field-independent basis, Debye-Ang):
   XX=            -55.0627   YY=            -55.0626   ZZ=            -41.7819
   XY=              0.0000   XZ=              0.0000   YZ=             -0.0000
 Traceless Quadrupole moment (field-independent basis, Debye-Ang):
   XX=             -4.4269   YY=             -4.4269   ZZ=              8.8538
   XY=              0.0000   XZ=              0.0000   YZ=             -0.0000
 Octapole moment (field-independent basis, Debye-Ang**2):
  XXX=              6.5303  YYY=            -17.9263  ZZZ=              8.8194  XYY=             -6.5304
  XXY=             17.9261  XXZ=             11.0169  XZZ=              0.0000  YZZ=              0.0000
  YYZ=             11.0167  XYZ=             -0.0000
 Hexadecapole moment (field-independent basis, Debye-Ang**3):
 XXXX=           -532.5275 YYYY=           -532.5254 ZZZZ=           -230.3165 XXXY=              0.0001
 XXXZ=             -4.1063 YYYX=             -0.0001 YYYZ=             11.2703 ZZZX=             -0.0000
 ZZZY=             -0.0001 XXYY=           -177.5086 XXZZ=           -119.8776 YYZZ=           -119.8772
 XXYZ=            -11.2706 YYXZ=              4.1063 ZZXY=              0.0000
 N-N= 2.879440828925D+02 E-N=-1.403621406100D+03  KE= 3.536061793279D+02
 Calling FoFJK, ICntrl=      2127 FMM=F ISym2X=0 I1Cent= 0 IOpClX= 0 NMat=1 NMatS=1 NMatT=0.
 ***** Axes restored to original set *****
 -------------------------------------------------------------------
 Center     Atomic                   Forces (Hartrees/Bohr)
 Number     Number              X              Y              Z
 -------------------------------------------------------------------
      1        6          -0.000001174   -0.000000395   -0.004257837
      2        6           0.000000315   -0.000000085    0.006750465
      3        1          -0.000458486   -0.000203257    0.000205133
      4        1           0.000404291   -0.000294238    0.000205418
      5        1           0.000052483    0.000497213    0.000205498
      6        6          -0.055121244   -0.024441617   -0.019124107
      7        6           0.006394661    0.059956749   -0.019123762
      8        6           0.048728375   -0.035514978   -0.019122524
      9        7           0.052132423    0.023116693    0.018087140
     10        7          -0.006046660   -0.056704959    0.018088240
     11        7          -0.046084984    0.033588873    0.018086335
 -------------------------------------------------------------------
 Cartesian Forces:  Max     0.059956749 RMS     0.026288943

 GradGradGradGradGradGradGradGradGradGradGradGradGradGradGradGradGradGrad
 Berny optimization.
 FormGI is forming the generalized inverse of G from B-inverse, IUseBI=4.
 Internal  Forces:  Max     0.059827300 RMS     0.017107484
 Search for a local minimum.
 Step number   1 out of a maximum of   47
 All quantities printed in internal units (Hartrees-Bohrs-Radians)
 Mixed Optimization -- RFO/linear search
 Second derivative matrix not updated -- first step.
 ITU=  0
     Eigenvalues ---    0.00230   0.04591   0.04591   0.04591   0.04591
     Eigenvalues ---    0.04591   0.04591   0.05765   0.05765   0.08741
     Eigenvalues ---    0.08742   0.16000   0.16000   0.16000   0.25000
     Eigenvalues ---    0.25000   0.25000   0.27979   0.34635   0.34635
     Eigenvalues ---    0.34635   0.35170   0.35171   0.35171   1.15072
     Eigenvalues ---    1.15073   1.15073
 RFO step:  Lambda=-9.54671107D-03 EMin= 2.30000000D-03
 Linear search not attempted -- first point.
 Iteration  1 RMS(Cart)=  0.01372228 RMS(Int)=  0.00000708
 Iteration  2 RMS(Cart)=  0.00001477 RMS(Int)=  0.00000105
 Iteration  3 RMS(Cart)=  0.00000000 RMS(Int)=  0.00000105
 Variable       Old X    -DE/DX   Delta X   Delta X   Delta X     New X
                                 (Linear)    (Quad)   (Total)
    R1        2.92183   0.00737   0.00000   0.02546   0.02546   2.94729
    R2        2.78699   0.00343   0.00000   0.00949   0.00949   2.79648
    R3        2.78699   0.00343   0.00000   0.00949   0.00949   2.79648
    R4        2.78699   0.00343   0.00000   0.00949   0.00949   2.79648
    R5        2.06272  -0.00041   0.00000  -0.00114  -0.00114   2.06158
    R6        2.06272  -0.00040   0.00000  -0.00114  -0.00114   2.06159
    R7        2.06272  -0.00040   0.00000  -0.00114  -0.00114   2.06158
    R8        2.23146  -0.05983   0.00000  -0.05156  -0.05156   2.17990
    R9        2.23146  -0.05983   0.00000  -0.05156  -0.05156   2.17990
   R10        2.23146  -0.05983   0.00000  -0.05156  -0.05156   2.17990
    A1        1.91687  -0.00014   0.00000  -0.00054  -0.00054   1.91633
    A2        1.91688  -0.00014   0.00000  -0.00055  -0.00055   1.91633
    A3        1.91687  -0.00014   0.00000  -0.00054  -0.00054   1.91634
    A4        1.90435   0.00014   0.00000   0.00055   0.00055   1.90490
    A5        1.90435   0.00014   0.00000   0.00055   0.00055   1.90490
    A6        1.90435   0.00014   0.00000   0.00055   0.00055   1.90490
    A7        1.90597   0.00037   0.00000   0.00220   0.00220   1.90816
    A8        1.90597   0.00037   0.00000   0.00220   0.00220   1.90817
    A9        1.90597   0.00037   0.00000   0.00221   0.00220   1.90817
   A10        1.91527  -0.00037   0.00000  -0.00218  -0.00219   1.91309
   A11        1.91528  -0.00037   0.00000  -0.00218  -0.00218   1.91309
   A12        1.91528  -0.00037   0.00000  -0.00218  -0.00218   1.91309
   A13        3.10664   0.00008   0.00000   0.00148   0.00148   3.10812
   A14        3.16091  -0.00003   0.00000  -0.00052  -0.00052   3.16039
   A15        3.10665   0.00008   0.00000   0.00147   0.00147   3.10812
   A16        3.16091  -0.00003   0.00000  -0.00050  -0.00050   3.16040
   A17        3.10664   0.00008   0.00000   0.00151   0.00151   3.10815
   A18        3.16092  -0.00003   0.00000  -0.00053  -0.00053   3.16039
    D1       -3.14152   0.00000   0.00000  -0.00001  -0.00001  -3.14153
    D2       -1.04712  -0.00000   0.00000  -0.00001  -0.00001  -1.04714
    D3        1.04727   0.00000   0.00000  -0.00001  -0.00001   1.04726
    D4       -1.04712   0.00000   0.00000  -0.00001  -0.00001  -1.04713
    D5        1.04727  -0.00000   0.00000  -0.00001  -0.00001   1.04726
    D6       -3.14152  -0.00000   0.00000  -0.00001  -0.00001  -3.14153
    D7        1.04727  -0.00000   0.00000  -0.00001  -0.00001   1.04726
    D8       -3.14152  -0.00000   0.00000  -0.00002  -0.00002  -3.14154
    D9       -1.04712  -0.00000   0.00000  -0.00001  -0.00001  -1.04714
         Item               Value     Threshold  Converged?
 Maximum Force            0.059827     0.000450     NO 
 RMS     Force            0.017107     0.000300     NO 
 Maximum Displacement     0.040101     0.001800     NO 
 RMS     Displacement     0.013717     0.001200     NO 
 Predicted change in Energy=-4.816008D-03
 GradGradGradGradGradGradGradGradGradGradGradGradGradGradGradGradGradGrad

                          Input orientation:                          
 ---------------------------------------------------------------------
 Center     Atomic      Atomic             Coordinates (Angstroms)
 Number     Number       Type             X           Y           Z
 ---------------------------------------------------------------------
      1          6           0        0.000002   -0.000008    0.215889
      2          6           0       -0.000001   -0.000008    1.775530
      3          1           0        0.941081    0.417269    2.136639
      4          1           0       -0.831912    0.606361    2.136639
      5          1           0       -0.109172   -1.023646    2.136646
      6          6           0       -1.272886   -0.564307   -0.285334
      7          6           0        0.147749    1.384498   -0.285324
      8          6           0        1.125147   -0.820208   -0.285337
      9          7           0       -2.277432   -1.010033   -0.635904
     10          7           0        0.264002    2.477329   -0.635879
     11          7           0        2.013433   -1.467286   -0.635936
 ---------------------------------------------------------------------
                    Distance matrix (angstroms):
                    1          2          3          4          5
     1  C    0.000000
     2  C    1.559641   0.000000
     3  H    2.179227   1.090942   0.000000
     4  H    2.179230   1.090944   1.783048   0.000000
     5  H    2.179234   1.090943   1.783050   1.783052   0.000000
     6  C    1.479832   2.487133   3.425069   2.725964   2.726024
     7  C    1.479832   2.487128   2.725951   2.726012   3.425070
     8  C    1.479833   2.487138   2.726022   3.425076   2.725973
     9  N    2.632947   3.467255   4.481407   3.519837   3.519740
    10  N    2.632946   3.467245   3.519821   3.519717   4.481404
    11  N    2.632948   3.467274   3.519753   4.481425   3.519869
                    6          7          8          9         10
     6  C    0.000000
     7  C    2.411648   0.000000
     8  C    2.411648   2.411646   0.000000
     9  N    1.153552   3.426104   3.425854   0.000000
    10  N    3.425851   1.153552   3.426106   4.315157   0.000000
    11  N    3.426104   3.425840   1.153552   4.315160   4.315148
                   11
    11  N    0.000000
 Stoichiometry    C5H3N3
 Framework group  C1[X(C5H3N3)]
 Deg. of freedom    27
 Full point group                 C1      NOp   1
 Largest Abelian subgroup         C1      NOp   1
 Largest concise Abelian subgroup C1      NOp   1
                         Standard orientation:                         
 ---------------------------------------------------------------------
 Center     Atomic      Atomic             Coordinates (Angstroms)
 Number     Number       Type             X           Y           Z
 ---------------------------------------------------------------------
      1          6           0       -0.000001   -0.000006    0.218326
      2          6           0       -0.000004   -0.000005    1.777966
      3          1           0        1.023265    0.112583    2.139075
      4          1           0       -0.609138    0.829885    2.139076
      5          1           0       -0.414138   -0.942473    2.139082
      6          6           0       -1.384023   -0.152192   -0.282898
      7          6           0        0.560214    1.274689   -0.282888
      8          6           0        0.823811   -1.122507   -0.282900
      9          7           0       -2.476392   -0.272666   -0.633468
     10          7           0        1.002057    2.280954   -0.633442
     11          7           0        1.474340   -2.008271   -0.633499
 ---------------------------------------------------------------------
 Rotational constants (GHZ):           2.1184322           2.1184234           1.5142816
 Standard basis: GTBas3 (6D, 7F)
 There are   263 symmetry adapted cartesian basis functions of A   symmetry.
 There are   239 symmetry adapted basis functions of A   symmetry.
   239 basis functions,   373 primitive gaussians,   263 cartesian basis functions
    27 alpha electrons       27 beta electrons
       nuclear repulsion energy       289.3732086918 Hartrees.
 NAtoms=   11 NActive=   11 NUniq=   11 SFac= 1.00D+00 NAtFMM=   60 NAOKFM=F Big=F
 Integral buffers will be    131072 words long.
 Raffenetti 2 integral format.
 Two-electron integral symmetry is turned on.
 One-electron integrals computed using PRISM.
 NBasis=   239 RedAO= T EigKep=  9.97D-05  NBF=   239
 NBsUse=   239 1.00D-06 EigRej= -1.00D+00 NBFU=   239
 Initial guess from the checkpoint file:  "/home/artemiy/opt/gaussian/scr/Gau-19926.chk"
 B after Tr=    -0.000000    0.000000    0.000000
         Rot=    0.988956   -0.000002   -0.000001    0.148209 Ang= -17.05 deg.
 ExpMin= 1.61D-01 ExpMax= 4.17D+03 ExpMxC= 6.27D+02 IAcc=2 IRadAn=         4 AccDes= 0.00D+00
 Harris functional with IExCor=  402 and IRadAn=       4 diagonalized for initial guess.
 HarFok:  IExCor=  402 AccDes= 0.00D+00 IRadAn=         4 IDoV= 1 UseB2=F ITyADJ=14
 ICtDFT=  3500011 ScaDFX=  1.000000  1.000000  1.000000  1.000000
 FoFCou: FMM=F IPFlag=           0 FMFlag=      100000 FMFlg1=           0
         NFxFlg=           0 DoJE=T BraDBF=F KetDBF=T FulRan=T
         wScrn=  0.000000 ICntrl=       500 IOpCl=  0 I1Cent=   200000004 NGrid=           0
         NMat0=    1 NMatS0=      1 NMatT0=    0 NMatD0=    1 NMtDS0=    0 NMtDT0=    0
 Petite list used in FoFCou.
 Keep R1 ints in memory in canonical form, NReq=420486520.
 Requested convergence on RMS density matrix=1.00D-08 within 128 cycles.
 Requested convergence on MAX density matrix=1.00D-06.
 Requested convergence on             energy=1.00D-06.
 No special actions if energy rises.
 Integral accuracy reduced to 1.0D-05 until final iterations.
 Initial convergence to 1.0D-05 achieved.  Increase integral accuracy.
 SCF Done:  E(RB3LYP) =  -356.526857817     A.U. after   11 cycles
            NFock= 11  Conv=0.39D-08     -V/T= 2.0073
 Calling FoFJK, ICntrl=      2127 FMM=F ISym2X=0 I1Cent= 0 IOpClX= 0 NMat=1 NMatS=1 NMatT=0.
 ***** Axes restored to original set *****
 -------------------------------------------------------------------
 Center     Atomic                   Forces (Hartrees/Bohr)
 Number     Number              X              Y              Z
 -------------------------------------------------------------------
      1        6           0.000000029   -0.000000212   -0.001532734
      2        6          -0.000000025    0.000000490    0.000808670
      3        1           0.000042468    0.000018243   -0.000332200
      4        1          -0.000036777    0.000026815   -0.000332785
      5        1          -0.000005490   -0.000044118   -0.000333096
      6        6           0.000673133    0.000277850    0.000667964
      7        6          -0.000095942   -0.000721848    0.000666943
      8        6          -0.000577019    0.000444287    0.000666223
      9        7          -0.000183631   -0.000070897   -0.000092931
     10        7           0.000030931    0.000193759   -0.000093635
     11        7           0.000152323   -0.000124369   -0.000092418
 -------------------------------------------------------------------
 Cartesian Forces:  Max     0.001532734 RMS     0.000440698

 GradGradGradGradGradGradGradGradGradGradGradGradGradGradGradGradGradGrad
 Berny optimization.
 Using GEDIIS/GDIIS optimizer.
 FormGI is forming the generalized inverse of G from B-inverse, IUseBI=4.
 Internal  Forces:  Max     0.000694714 RMS     0.000314538
 Search for a local minimum.
 Step number   2 out of a maximum of   47
 All quantities printed in internal units (Hartrees-Bohrs-Radians)
 Mixed Optimization -- En-DIIS/RFO-DIIS
 Update second derivatives using D2CorX and points    1    2
 DE= -4.88D-03 DEPred=-4.82D-03 R= 1.01D+00
 TightC=F SS=  1.41D+00  RLast= 9.45D-02 DXNew= 5.0454D-01 2.8360D-01
 Trust test= 1.01D+00 RLast= 9.45D-02 DXMaxT set to 3.00D-01
 ITU=  1  0
 Use linear search instead of GDIIS.
     Eigenvalues ---    0.00230   0.04591   0.04591   0.04591   0.04591
     Eigenvalues ---    0.04591   0.04591   0.05741   0.05741   0.08751
     Eigenvalues ---    0.08751   0.16000   0.16000   0.16014   0.24986
     Eigenvalues ---    0.25000   0.25000   0.28036   0.34633   0.34635
     Eigenvalues ---    0.34635   0.35171   0.35171   0.35324   1.15072
     Eigenvalues ---    1.15073   1.16072
 RFO step:  Lambda=-1.36509779D-05 EMin= 2.29999998D-03
 Quartic linear search produced a step of -0.00578.
 Iteration  1 RMS(Cart)=  0.00264353 RMS(Int)=  0.00000245
 Iteration  2 RMS(Cart)=  0.00000306 RMS(Int)=  0.00000120
 Iteration  3 RMS(Cart)=  0.00000000 RMS(Int)=  0.00000120
 Variable       Old X    -DE/DX   Delta X   Delta X   Delta X     New X
                                 (Linear)    (Quad)   (Total)
    R1        2.94729  -0.00019  -0.00015  -0.00043  -0.00058   2.94671
    R2        2.79648  -0.00069  -0.00005  -0.00188  -0.00193   2.79454
    R3        2.79648  -0.00069  -0.00005  -0.00188  -0.00193   2.79454
    R4        2.79648  -0.00069  -0.00005  -0.00188  -0.00193   2.79455
    R5        2.06158  -0.00007   0.00001  -0.00020  -0.00019   2.06139
    R6        2.06159  -0.00007   0.00001  -0.00020  -0.00020   2.06139
    R7        2.06158  -0.00007   0.00001  -0.00021  -0.00020   2.06139
    R8        2.17990   0.00022   0.00030  -0.00022   0.00008   2.17998
    R9        2.17990   0.00022   0.00030  -0.00022   0.00008   2.17998
   R10        2.17990   0.00022   0.00030  -0.00022   0.00008   2.17998
    A1        1.91633  -0.00047   0.00000  -0.00186  -0.00186   1.91447
    A2        1.91633  -0.00047   0.00000  -0.00186  -0.00185   1.91447
    A3        1.91634  -0.00047   0.00000  -0.00186  -0.00186   1.91448
    A4        1.90490   0.00047  -0.00000   0.00188   0.00188   1.90678
    A5        1.90490   0.00047  -0.00000   0.00188   0.00187   1.90677
    A6        1.90490   0.00047  -0.00000   0.00188   0.00188   1.90677
    A7        1.90816  -0.00034  -0.00001  -0.00209  -0.00210   1.90606
    A8        1.90817  -0.00034  -0.00001  -0.00209  -0.00211   1.90606
    A9        1.90817  -0.00034  -0.00001  -0.00210  -0.00212   1.90606
   A10        1.91309   0.00034   0.00001   0.00209   0.00210   1.91519
   A11        1.91309   0.00034   0.00001   0.00208   0.00209   1.91519
   A12        1.91309   0.00034   0.00001   0.00208   0.00209   1.91518
   A13        3.10812   0.00005  -0.00001   0.00110   0.00109   3.10921
   A14        3.16039  -0.00004   0.00000  -0.00081  -0.00081   3.15958
   A15        3.10812   0.00005  -0.00001   0.00109   0.00108   3.10920
   A16        3.16040  -0.00004   0.00000  -0.00083  -0.00082   3.15958
   A17        3.10815   0.00005  -0.00001   0.00106   0.00106   3.10920
   A18        3.16039  -0.00004   0.00000  -0.00083  -0.00083   3.15957
    D1       -3.14153  -0.00000   0.00000  -0.00020  -0.00020   3.14146
    D2       -1.04714  -0.00000   0.00000  -0.00019  -0.00018  -1.04732
    D3        1.04726  -0.00000   0.00000  -0.00020  -0.00020   1.04707
    D4       -1.04713  -0.00000   0.00000  -0.00019  -0.00019  -1.04733
    D5        1.04726  -0.00000   0.00000  -0.00018  -0.00018   1.04707
    D6       -3.14153  -0.00000   0.00000  -0.00019  -0.00019   3.14146
    D7        1.04726  -0.00000   0.00000  -0.00019  -0.00019   1.04707
    D8       -3.14154   0.00000   0.00000  -0.00018  -0.00018   3.14147
    D9       -1.04714  -0.00000   0.00000  -0.00019  -0.00019  -1.04733
         Item               Value     Threshold  Converged?
 Maximum Force            0.000695     0.000450     NO 
 RMS     Force            0.000315     0.000300     NO 
 Maximum Displacement     0.006784     0.001800     NO 
 RMS     Displacement     0.002646     0.001200     NO 
 Predicted change in Energy=-7.038455D-06
 GradGradGradGradGradGradGradGradGradGradGradGradGradGradGradGradGradGrad

                          Input orientation:                          
 ---------------------------------------------------------------------
 Center     Atomic      Atomic             Coordinates (Angstroms)
 Number     Number       Type             X           Y           Z
 ---------------------------------------------------------------------
      1          6           0        0.000003   -0.000001    0.214825
      2          6           0        0.000002   -0.000006    1.774158
      3          1           0        0.941733    0.417433    2.133069
      4          1           0       -0.832383    0.606834    2.133063
      5          1           0       -0.109353   -1.024292    2.133056
      6          6           0       -1.272808   -0.564393   -0.283461
      7          6           0        0.147632    1.384484   -0.283455
      8          6           0        1.125183   -0.820089   -0.283476
      9          7           0       -2.277631   -1.010116   -0.633382
     10          7           0        0.264042    2.477551   -0.633364
     11          7           0        2.013590   -1.467443   -0.633405
 ---------------------------------------------------------------------
                    Distance matrix (angstroms):
                    1          2          3          4          5
     1  C    0.000000
     2  C    1.559333   0.000000
     3  H    2.177330   1.090839   0.000000
     4  H    2.177327   1.090840   1.784197   0.000000
     5  H    2.177324   1.090838   1.784196   1.784193   0.000000
     6  C    1.478809   2.484426   3.421665   2.721275   2.721155
     7  C    1.478809   2.484428   2.721282   2.721163   3.421662
     8  C    1.478810   2.484437   2.721176   3.421671   2.721287
     9  N    2.631997   3.464705   4.478331   3.515180   3.514940
    10  N    2.631996   3.464703   3.515181   3.514946   4.478326
    11  N    2.631998   3.464717   3.514970   4.478340   3.515192
                    6          7          8          9         10
     6  C    0.000000
     7  C    2.411590   0.000000
     8  C    2.411585   2.411586   0.000000
     9  N    1.153596   3.426143   3.426031   0.000000
    10  N    3.426042   1.153596   3.426137   4.315545   0.000000
    11  N    3.426130   3.426040   1.153596   4.315521   4.315541
                   11
    11  N    0.000000
 Stoichiometry    C5H3N3
 Framework group  C1[X(C5H3N3)]
 Deg. of freedom    27
 Full point group                 C1      NOp   1
 Largest Abelian subgroup         C1      NOp   1
 Largest concise Abelian subgroup C1      NOp   1
                         Standard orientation:                         
 ---------------------------------------------------------------------
 Center     Atomic      Atomic             Coordinates (Angstroms)
 Number     Number       Type             X           Y           Z
 ---------------------------------------------------------------------
      1          6           0        0.000002   -0.000002    0.216128
      2          6           0       -0.000004   -0.000001    1.775460
      3          1           0        0.612694   -0.828080    2.134371
      4          1           0        0.410780    0.944655    2.134366
      5          1           0       -1.023494   -0.116572    2.134358
      6          6           0       -0.828290    1.119158   -0.282159
      7          6           0        1.383370    0.157740   -0.282153
      8          6           0       -0.555071   -1.276900   -0.282173
      9          7           0       -1.482346    2.002646   -0.632080
     10          7           0        2.475526    0.282420   -0.632061
     11          7           0       -0.993181   -2.285063   -0.632103
 ---------------------------------------------------------------------
 Rotational constants (GHZ):           2.1205957           2.1205787           1.5140699
 Standard basis: GTBas3 (6D, 7F)
 There are   263 symmetry adapted cartesian basis functions of A   symmetry.
 There are   239 symmetry adapted basis functions of A   symmetry.
   239 basis functions,   373 primitive gaussians,   263 cartesian basis functions
    27 alpha electrons       27 beta electrons
       nuclear repulsion energy       289.4754665888 Hartrees.
 NAtoms=   11 NActive=   11 NUniq=   11 SFac= 1.00D+00 NAtFMM=   60 NAOKFM=F Big=F
 Integral buffers will be    131072 words long.
 Raffenetti 2 integral format.
 Two-electron integral symmetry is turned on.
 One-electron integrals computed using PRISM.
 NBasis=   239 RedAO= T EigKep=  9.97D-05  NBF=   239
 NBsUse=   239 1.00D-06 EigRej= -1.00D+00 NBFU=   239
 Initial guess from the checkpoint file:  "/home/artemiy/opt/gaussian/scr/Gau-19926.chk"
 B after Tr=     0.000000   -0.000000   -0.000000
         Rot=    0.867010    0.000001   -0.000001    0.498291 Ang=  59.77 deg.
 Keep R1 ints in memory in canonical form, NReq=420486520.
 Requested convergence on RMS density matrix=1.00D-08 within 128 cycles.
 Requested convergence on MAX density matrix=1.00D-06.
 Requested convergence on             energy=1.00D-06.
 No special actions if energy rises.
 SCF Done:  E(RB3LYP) =  -356.526865616     A.U. after    7 cycles
            NFock=  7  Conv=0.59D-08     -V/T= 2.0073
 Calling FoFJK, ICntrl=      2127 FMM=F ISym2X=0 I1Cent= 0 IOpClX= 0 NMat=1 NMatS=1 NMatT=0.
 ***** Axes restored to original set *****
 -------------------------------------------------------------------
 Center     Atomic                   Forces (Hartrees/Bohr)
 Number     Number              X              Y              Z
 -------------------------------------------------------------------
      1        6           0.000000675    0.000000156   -0.000829651
      2        6          -0.000000495   -0.000000209    0.000642764
      3        1          -0.000019389   -0.000007950   -0.000024291
      4        1           0.000018736   -0.000013517   -0.000024804
      5        1           0.000003083    0.000020432   -0.000023797
      6        6           0.000192650    0.000077757    0.000076610
      7        6          -0.000029908   -0.000206213    0.000078194
      8        6          -0.000165108    0.000127902    0.000077832
      9        7          -0.000094740   -0.000037088    0.000009237
     10        7           0.000014493    0.000101383    0.000009152
     11        7           0.000080002   -0.000062653    0.000008754
 -------------------------------------------------------------------
 Cartesian Forces:  Max     0.000829651 RMS     0.000197276

 GradGradGradGradGradGradGradGradGradGradGradGradGradGradGradGradGradGrad
 Berny optimization.
 Using GEDIIS/GDIIS optimizer.
 FormGI is forming the generalized inverse of G from B-inverse, IUseBI=4.
 Internal  Forces:  Max     0.000569822 RMS     0.000115729
 Search for a local minimum.
 Step number   3 out of a maximum of   47
 All quantities printed in internal units (Hartrees-Bohrs-Radians)
 Mixed Optimization -- En-DIIS/RFO-DIIS
 Swapping is turned off.
 Update second derivatives using D2CorX and points    1    2    3
 DE= -7.80D-06 DEPred=-7.04D-06 R= 1.11D+00
 TightC=F SS=  1.41D+00  RLast= 8.06D-03 DXNew= 5.0454D-01 2.4173D-02
 Trust test= 1.11D+00 RLast= 8.06D-03 DXMaxT set to 3.00D-01
 ITU=  1  1  0
     Eigenvalues ---    0.00230   0.04578   0.04591   0.04591   0.04591
     Eigenvalues ---    0.04591   0.04797   0.05764   0.05764   0.08782
     Eigenvalues ---    0.08782   0.14224   0.16000   0.16000   0.20554
     Eigenvalues ---    0.25000   0.25000   0.31010   0.34605   0.34635
     Eigenvalues ---    0.34635   0.35170   0.35171   0.37544   1.15072
     Eigenvalues ---    1.15073   1.15824
 En-DIIS/RFO-DIIS/Sim-DIIS IScMMF=       -3 using points:     3    2
 RFO step:  Lambda=-2.61939267D-06.
 DidBck=F Rises=F RFO-DIIS coefs:    1.17329   -0.17329
 Iteration  1 RMS(Cart)=  0.00163465 RMS(Int)=  0.00000221
 Iteration  2 RMS(Cart)=  0.00000239 RMS(Int)=  0.00000034
 Iteration  3 RMS(Cart)=  0.00000000 RMS(Int)=  0.00000034
 Variable       Old X    -DE/DX   Delta X   Delta X   Delta X     New X
                                 (Linear)    (Quad)   (Total)
    R1        2.94671   0.00057  -0.00010   0.00230   0.00220   2.94891
    R2        2.79454  -0.00013  -0.00034  -0.00041  -0.00074   2.79380
    R3        2.79454  -0.00013  -0.00033  -0.00041  -0.00075   2.79380
    R4        2.79455  -0.00013  -0.00033  -0.00041  -0.00075   2.79380
    R5        2.06139  -0.00003  -0.00003  -0.00009  -0.00012   2.06126
    R6        2.06139  -0.00003  -0.00003  -0.00010  -0.00013   2.06126
    R7        2.06139  -0.00003  -0.00003  -0.00009  -0.00012   2.06126
    R8        2.17998   0.00009   0.00001   0.00007   0.00008   2.18006
    R9        2.17998   0.00009   0.00001   0.00007   0.00008   2.18006
   R10        2.17998   0.00009   0.00001   0.00007   0.00008   2.18006
    A1        1.91447  -0.00010  -0.00032  -0.00047  -0.00079   1.91368
    A2        1.91447  -0.00011  -0.00032  -0.00048  -0.00081   1.91367
    A3        1.91448  -0.00011  -0.00032  -0.00049  -0.00081   1.91367
    A4        1.90678   0.00011   0.00033   0.00048   0.00080   1.90758
    A5        1.90677   0.00011   0.00032   0.00049   0.00081   1.90758
    A6        1.90677   0.00011   0.00033   0.00049   0.00081   1.90759
    A7        1.90606  -0.00002  -0.00036  -0.00012  -0.00049   1.90558
    A8        1.90606  -0.00002  -0.00037  -0.00012  -0.00049   1.90557
    A9        1.90606  -0.00002  -0.00037  -0.00011  -0.00048   1.90558
   A10        1.91519   0.00002   0.00036   0.00011   0.00047   1.91566
   A11        1.91519   0.00002   0.00036   0.00012   0.00048   1.91567
   A12        1.91518   0.00002   0.00036   0.00012   0.00048   1.91567
   A13        3.10921  -0.00008   0.00019  -0.00202  -0.00183   3.10738
   A14        3.15958   0.00002  -0.00014   0.00051   0.00037   3.15995
   A15        3.10920  -0.00008   0.00019  -0.00201  -0.00182   3.10738
   A16        3.15958   0.00002  -0.00014   0.00053   0.00038   3.15996
   A17        3.10920  -0.00008   0.00018  -0.00201  -0.00183   3.10737
   A18        3.15957   0.00002  -0.00014   0.00054   0.00040   3.15997
    D1        3.14146   0.00000  -0.00003   0.00013   0.00010   3.14156
    D2       -1.04732   0.00000  -0.00003   0.00012   0.00009  -1.04723
    D3        1.04707   0.00000  -0.00003   0.00013   0.00009   1.04716
    D4       -1.04733   0.00000  -0.00003   0.00013   0.00009  -1.04723
    D5        1.04707  -0.00000  -0.00003   0.00012   0.00008   1.04716
    D6        3.14146   0.00000  -0.00003   0.00012   0.00009   3.14155
    D7        1.04707   0.00000  -0.00003   0.00013   0.00010   1.04717
    D8        3.14147  -0.00000  -0.00003   0.00012   0.00009   3.14156
    D9       -1.04733   0.00000  -0.00003   0.00012   0.00009  -1.04724
         Item               Value     Threshold  Converged?
 Maximum Force            0.000570     0.000450     NO 
 RMS     Force            0.000116     0.000300     YES
 Maximum Displacement     0.004494     0.001800     NO 
 RMS     Displacement     0.001635     0.001200     NO 
 Predicted change in Energy=-1.309718D-06
 GradGradGradGradGradGradGradGradGradGradGradGradGradGradGradGradGradGrad

                          Input orientation:                          
 ---------------------------------------------------------------------
 Center     Atomic      Atomic             Coordinates (Angstroms)
 Number     Number       Type             X           Y           Z
 ---------------------------------------------------------------------
      1          6           0        0.000001   -0.000005    0.213083
      2          6           0        0.000007   -0.000010    1.773581
      3          1           0        0.941750    0.417682    2.131965
      4          1           0       -0.832592    0.606720    2.131964
      5          1           0       -0.109137   -1.024428    2.131966
      6          6           0       -1.272766   -0.564562   -0.283958
      7          6           0        0.147455    1.384528   -0.283943
      8          6           0        1.125305   -0.819970   -0.283963
      9          7           0       -2.278609   -1.010324   -0.631035
     10          7           0        0.264320    2.478501   -0.631004
     11          7           0        2.014276   -1.468170   -0.631027
 ---------------------------------------------------------------------
                    Distance matrix (angstroms):
                    1          2          3          4          5
     1  C    0.000000
     2  C    1.560498   0.000000
     3  H    2.177949   1.090773   0.000000
     4  H    2.177941   1.090771   1.784384   0.000000
     5  H    2.177950   1.090772   1.784390   1.784386   0.000000
     6  C    1.478415   2.484378   3.421340   2.720722   2.720697
     7  C    1.478414   2.484369   2.720717   2.720677   3.421334
     8  C    1.478414   2.484375   2.720695   3.421331   2.720728
     9  N    2.631605   3.463380   4.477062   3.512827   3.512973
    10  N    2.631604   3.463367   3.512817   3.512943   4.477051
    11  N    2.631603   3.463367   3.512958   4.477046   3.512822
                    6          7          8          9         10
     6  C    0.000000
     7  C    2.411635   0.000000
     8  C    2.411634   2.411638   0.000000
     9  N    1.153640   3.426598   3.426853   0.000000
    10  N    3.426851   1.153640   3.426608   4.317220   0.000000
    11  N    3.426603   3.426860   1.153640   4.317230   4.317240
                   11
    11  N    0.000000
 Stoichiometry    C5H3N3
 Framework group  C1[X(C5H3N3)]
 Deg. of freedom    27
 Full point group                 C1      NOp   1
 Largest Abelian subgroup         C1      NOp   1
 Largest concise Abelian subgroup C1      NOp   1
                         Standard orientation:                         
 ---------------------------------------------------------------------
 Center     Atomic      Atomic             Coordinates (Angstroms)
 Number     Number       Type             X           Y           Z
 ---------------------------------------------------------------------
      1          6           0       -0.000004    0.000000    0.213949
      2          6           0       -0.000012   -0.000001    1.774447
      3          1           0       -0.244401   -1.000811    2.132831
      4          1           0        0.988909    0.288752    2.132830
      5          1           0       -0.744540    0.712054    2.132832
      6          6           0        0.330252    1.352624   -0.283092
      7          6           0        1.006284   -0.962319   -0.283076
      8          6           0       -1.336534   -0.390304   -0.283097
      9          7           0        0.591561    2.421334   -0.630169
     10          7           0        1.801175   -1.722966   -0.630138
     11          7           0       -2.392720   -0.698368   -0.630161
 ---------------------------------------------------------------------
 Rotational constants (GHZ):           2.1210631           2.1210497           1.5131257
 Standard basis: GTBas3 (6D, 7F)
 There are   263 symmetry adapted cartesian basis functions of A   symmetry.
 There are   239 symmetry adapted basis functions of A   symmetry.
   239 basis functions,   373 primitive gaussians,   263 cartesian basis functions
    27 alpha electrons       27 beta electrons
       nuclear repulsion energy       289.4767696535 Hartrees.
 NAtoms=   11 NActive=   11 NUniq=   11 SFac= 1.00D+00 NAtFMM=   60 NAOKFM=F Big=F
 Integral buffers will be    131072 words long.
 Raffenetti 2 integral format.
 Two-electron integral symmetry is turned on.
 One-electron integrals computed using PRISM.
 NBasis=   239 RedAO= T EigKep=  9.95D-05  NBF=   239
 NBsUse=   239 1.00D-06 EigRej= -1.00D+00 NBFU=   239
 Initial guess from the checkpoint file:  "/home/artemiy/opt/gaussian/scr/Gau-19926.chk"
 B after Tr=     0.000000    0.000000    0.000000
         Rot=    0.905440    0.000001   -0.000000    0.424473 Ang=  50.23 deg.
 Keep R1 ints in memory in canonical form, NReq=420486520.
 Requested convergence on RMS density matrix=1.00D-08 within 128 cycles.
 Requested convergence on MAX density matrix=1.00D-06.
 Requested convergence on             energy=1.00D-06.
 No special actions if energy rises.
 SCF Done:  E(RB3LYP) =  -356.526867313     A.U. after    8 cycles
            NFock=  8  Conv=0.65D-08     -V/T= 2.0073
 Calling FoFJK, ICntrl=      2127 FMM=F ISym2X=0 I1Cent= 0 IOpClX= 0 NMat=1 NMatS=1 NMatT=0.
 ***** Axes restored to original set *****
 -------------------------------------------------------------------
 Center     Atomic                   Forces (Hartrees/Bohr)
 Number     Number              X              Y              Z
 -------------------------------------------------------------------
      1        6          -0.000001401    0.000000291   -0.000271766
      2        6           0.000000102   -0.000000333    0.000188880
      3        1          -0.000001769   -0.000001017    0.000008111
      4        1           0.000000764   -0.000000572    0.000009072
      5        1           0.000000997    0.000002905    0.000007683
      6        6          -0.000081207   -0.000016590    0.000035680
      7        6           0.000026455    0.000077990    0.000035025
      8        6           0.000055905   -0.000063381    0.000035776
      9        7           0.000020490   -0.000002138   -0.000015732
     10        7          -0.000011794   -0.000015880   -0.000016168
     11        7          -0.000008541    0.000018723   -0.000016560
 -------------------------------------------------------------------
 Cartesian Forces:  Max     0.000271766 RMS     0.000064280

 GradGradGradGradGradGradGradGradGradGradGradGradGradGradGradGradGradGrad
 Berny optimization.
 Using GEDIIS/GDIIS optimizer.
 FormGI is forming the generalized inverse of G from B-inverse, IUseBI=4.
 Internal  Forces:  Max     0.000213975 RMS     0.000043256
 Search for a local minimum.
 Step number   4 out of a maximum of   47
 All quantities printed in internal units (Hartrees-Bohrs-Radians)
 Mixed Optimization -- En-DIIS/RFO-DIIS
 Swapping is turned off.
 Update second derivatives using D2CorX and points    1    2    3    4
 DE= -1.70D-06 DEPred=-1.31D-06 R= 1.30D+00
 TightC=F SS=  1.41D+00  RLast= 4.73D-03 DXNew= 5.0454D-01 1.4203D-02
 Trust test= 1.30D+00 RLast= 4.73D-03 DXMaxT set to 3.00D-01
 ITU=  1  1  1  0
     Eigenvalues ---    0.00230   0.04591   0.04591   0.04591   0.04591
     Eigenvalues ---    0.04597   0.05768   0.05769   0.05913   0.08795
     Eigenvalues ---    0.08795   0.11434   0.16000   0.16000   0.18581
     Eigenvalues ---    0.25000   0.25000   0.30455   0.34628   0.34635
     Eigenvalues ---    0.34635   0.35171   0.35171   0.39773   1.15072
     Eigenvalues ---    1.15073   1.16004
 En-DIIS/RFO-DIIS/Sim-DIIS IScMMF=       -3 using points:     4    3    2
 RFO step:  Lambda=-4.41559024D-07.
 DidBck=F Rises=F RFO-DIIS coefs:    0.91655    0.24297   -0.15952
 Iteration  1 RMS(Cart)=  0.00024607 RMS(Int)=  0.00000032
 Iteration  2 RMS(Cart)=  0.00000010 RMS(Int)=  0.00000031
 Variable       Old X    -DE/DX   Delta X   Delta X   Delta X     New X
                                 (Linear)    (Quad)   (Total)
    R1        2.94891   0.00021  -0.00028   0.00123   0.00096   2.94987
    R2        2.79380   0.00005  -0.00025   0.00021  -0.00004   2.79376
    R3        2.79380   0.00005  -0.00025   0.00021  -0.00004   2.79376
    R4        2.79380   0.00005  -0.00025   0.00021  -0.00003   2.79376
    R5        2.06126   0.00000  -0.00002  -0.00000  -0.00002   2.06124
    R6        2.06126   0.00000  -0.00002   0.00000  -0.00002   2.06124
    R7        2.06126  -0.00000  -0.00002  -0.00000  -0.00003   2.06124
    R8        2.18006  -0.00001   0.00001  -0.00001  -0.00001   2.18006
    R9        2.18006  -0.00001   0.00001  -0.00001  -0.00000   2.18006
   R10        2.18006  -0.00001   0.00001  -0.00001  -0.00000   2.18006
    A1        1.91368  -0.00003  -0.00023  -0.00006  -0.00029   1.91339
    A2        1.91367  -0.00003  -0.00023  -0.00006  -0.00029   1.91338
    A3        1.91367  -0.00003  -0.00023  -0.00006  -0.00029   1.91338
    A4        1.90758   0.00003   0.00023   0.00006   0.00029   1.90788
    A5        1.90758   0.00003   0.00023   0.00006   0.00029   1.90787
    A6        1.90759   0.00003   0.00023   0.00006   0.00029   1.90788
    A7        1.90558   0.00001  -0.00029   0.00020  -0.00009   1.90548
    A8        1.90557   0.00001  -0.00030   0.00021  -0.00009   1.90548
    A9        1.90558   0.00001  -0.00030   0.00020  -0.00010   1.90548
   A10        1.91566  -0.00001   0.00030  -0.00020   0.00009   1.91575
   A11        1.91567  -0.00001   0.00029  -0.00021   0.00009   1.91576
   A12        1.91567  -0.00001   0.00029  -0.00020   0.00009   1.91576
   A13        3.10738   0.00005   0.00033   0.00041   0.00074   3.10812
   A14        3.15995   0.00000  -0.00016   0.00022   0.00006   3.16001
   A15        3.10738   0.00005   0.00032   0.00040   0.00073   3.10811
   A16        3.15996   0.00000  -0.00016   0.00022   0.00006   3.16002
   A17        3.10737   0.00005   0.00032   0.00044   0.00076   3.10813
   A18        3.15997   0.00000  -0.00017   0.00022   0.00005   3.16002
    D1        3.14156  -0.00000  -0.00004   0.00010   0.00006  -3.14156
    D2       -1.04723   0.00000  -0.00004   0.00010   0.00006  -1.04717
    D3        1.04716   0.00000  -0.00004   0.00011   0.00007   1.04723
    D4       -1.04723   0.00000  -0.00004   0.00010   0.00006  -1.04717
    D5        1.04716   0.00000  -0.00004   0.00010   0.00007   1.04722
    D6        3.14155   0.00000  -0.00004   0.00011   0.00007  -3.14156
    D7        1.04717  -0.00000  -0.00004   0.00010   0.00006   1.04723
    D8        3.14156   0.00000  -0.00004   0.00010   0.00007  -3.14156
    D9       -1.04724   0.00000  -0.00004   0.00011   0.00007  -1.04717
         Item               Value     Threshold  Converged?
 Maximum Force            0.000214     0.000450     YES
 RMS     Force            0.000043     0.000300     YES
 Maximum Displacement     0.000522     0.001800     YES
 RMS     Displacement     0.000246     0.001200     YES
 Predicted change in Energy=-2.133176D-07
 Optimization completed.
    -- Stationary point found.
                           ----------------------------
                           !   Optimized Parameters   !
                           ! (Angstroms and Degrees)  !
 --------------------------                            --------------------------
 ! Name  Definition              Value          Derivative Info.                !
 --------------------------------------------------------------------------------
 ! R1    R(1,2)                  1.5605         -DE/DX =    0.0002              !
 ! R2    R(1,6)                  1.4784         -DE/DX =    0.0001              !
 ! R3    R(1,7)                  1.4784         -DE/DX =    0.0001              !
 ! R4    R(1,8)                  1.4784         -DE/DX =    0.0001              !
 ! R5    R(2,3)                  1.0908         -DE/DX =    0.0                 !
 ! R6    R(2,4)                  1.0908         -DE/DX =    0.0                 !
 ! R7    R(2,5)                  1.0908         -DE/DX =    0.0                 !
 ! R8    R(6,9)                  1.1536         -DE/DX =    0.0                 !
 ! R9    R(7,10)                 1.1536         -DE/DX =    0.0                 !
 ! R10   R(8,11)                 1.1536         -DE/DX =    0.0                 !
 ! A1    A(2,1,6)              109.6455         -DE/DX =    0.0                 !
 ! A2    A(2,1,7)              109.645          -DE/DX =    0.0                 !
 ! A3    A(2,1,8)              109.6454         -DE/DX =    0.0                 !
 ! A4    A(6,1,7)              109.2965         -DE/DX =    0.0                 !
 ! A5    A(6,1,8)              109.2964         -DE/DX =    0.0                 !
 ! A6    A(7,1,8)              109.2968         -DE/DX =    0.0                 !
 ! A7    A(1,2,3)              109.1814         -DE/DX =    0.0                 !
 ! A8    A(1,2,4)              109.181          -DE/DX =    0.0                 !
 ! A9    A(1,2,5)              109.1816         -DE/DX =    0.0                 !
 ! A10   A(3,2,4)              109.7593         -DE/DX =    0.0                 !
 ! A11   A(3,2,5)              109.7597         -DE/DX =    0.0                 !
 ! A12   A(4,2,5)              109.7595         -DE/DX =    0.0                 !
 ! A13   L(1,6,9,4,-1)         178.04           -DE/DX =    0.0001              !
 ! A14   L(1,6,9,4,-2)         181.052          -DE/DX =    0.0                 !
 ! A15   L(1,7,10,3,-1)        178.0399         -DE/DX =    0.0                 !
 ! A16   L(1,7,10,3,-2)        181.0527         -DE/DX =    0.0                 !
 ! A17   L(1,8,11,5,-1)        178.0392         -DE/DX =    0.0001              !
 ! A18   L(1,8,11,5,-2)        181.0528         -DE/DX =    0.0                 !
 ! D1    D(6,1,2,3)           -180.0017         -DE/DX =    0.0                 !
 ! D2    D(6,1,2,4)            -60.0021         -DE/DX =    0.0                 !
 ! D3    D(6,1,2,5)             59.9978         -DE/DX =    0.0                 !
 ! D4    D(7,1,2,3)            -60.0019         -DE/DX =    0.0                 !
 ! D5    D(7,1,2,4)             59.9977         -DE/DX =    0.0                 !
 ! D6    D(7,1,2,5)           -180.0023         -DE/DX =    0.0                 !
 ! D7    D(8,1,2,3)             59.9982         -DE/DX =    0.0                 !
 ! D8    D(8,1,2,4)           -180.0021         -DE/DX =    0.0                 !
 ! D9    D(8,1,2,5)            -60.0022         -DE/DX =    0.0                 !
 --------------------------------------------------------------------------------
 GradGradGradGradGradGradGradGradGradGradGradGradGradGradGradGradGradGrad

                          Input orientation:                          
 ---------------------------------------------------------------------
 Center     Atomic      Atomic             Coordinates (Angstroms)
 Number     Number       Type             X           Y           Z
 ---------------------------------------------------------------------
      1          6           0        0.000001   -0.000005    0.213083
      2          6           0        0.000007   -0.000010    1.773581
      3          1           0        0.941750    0.417682    2.131965
      4          1           0       -0.832592    0.606720    2.131964
      5          1           0       -0.109137   -1.024428    2.131966
      6          6           0       -1.272766   -0.564562   -0.283958
      7          6           0        0.147455    1.384528   -0.283943
      8          6           0        1.125305   -0.819970   -0.283963
      9          7           0       -2.278609   -1.010324   -0.631035
     10          7           0        0.264320    2.478501   -0.631004
     11          7           0        2.014276   -1.468170   -0.631027
 ---------------------------------------------------------------------
                    Distance matrix (angstroms):
                    1          2          3          4          5
     1  C    0.000000
     2  C    1.560498   0.000000
     3  H    2.177949   1.090773   0.000000
     4  H    2.177941   1.090771   1.784384   0.000000
     5  H    2.177950   1.090772   1.784390   1.784386   0.000000
     6  C    1.478415   2.484378   3.421340   2.720722   2.720697
     7  C    1.478414   2.484369   2.720717   2.720677   3.421334
     8  C    1.478414   2.484375   2.720695   3.421331   2.720728
     9  N    2.631605   3.463380   4.477062   3.512827   3.512973
    10  N    2.631604   3.463367   3.512817   3.512943   4.477051
    11  N    2.631603   3.463367   3.512958   4.477046   3.512822
                    6          7          8          9         10
     6  C    0.000000
     7  C    2.411635   0.000000
     8  C    2.411634   2.411638   0.000000
     9  N    1.153640   3.426598   3.426853   0.000000
    10  N    3.426851   1.153640   3.426608   4.317220   0.000000
    11  N    3.426603   3.426860   1.153640   4.317230   4.317240
                   11
    11  N    0.000000
 Stoichiometry    C5H3N3
 Framework group  C1[X(C5H3N3)]
 Deg. of freedom    27
 Full point group                 C1      NOp   1
 Largest Abelian subgroup         C1      NOp   1
 Largest concise Abelian subgroup C1      NOp   1
                         Standard orientation:                         
 ---------------------------------------------------------------------
 Center     Atomic      Atomic             Coordinates (Angstroms)
 Number     Number       Type             X           Y           Z
 ---------------------------------------------------------------------
      1          6           0       -0.000004    0.000000    0.213949
      2          6           0       -0.000012   -0.000001    1.774447
      3          1           0       -0.244401   -1.000811    2.132831
      4          1           0        0.988909    0.288752    2.132830
      5          1           0       -0.744540    0.712054    2.132832
      6          6           0        0.330252    1.352624   -0.283092
      7          6           0        1.006284   -0.962319   -0.283076
      8          6           0       -1.336534   -0.390304   -0.283097
      9          7           0        0.591561    2.421334   -0.630169
     10          7           0        1.801175   -1.722966   -0.630138
     11          7           0       -2.392720   -0.698368   -0.630161
 ---------------------------------------------------------------------
 Rotational constants (GHZ):           2.1210631           2.1210497           1.5131257

 **********************************************************************

            Population analysis using the SCF density.

 **********************************************************************

 Orbital symmetries:
       Occupied  (A) (A) (A) (A) (A) (A) (A) (A) (A) (A) (A) (A)
                 (A) (A) (A) (A) (A) (A) (A) (A) (A) (A) (A) (A)
                 (A) (A) (A)
       Virtual   (A) (A) (A) (A) (A) (A) (A) (A) (A) (A) (A) (A)
                 (A) (A) (A) (A) (A) (A) (A) (A) (A) (A) (A) (A)
                 (A) (A) (A) (A) (A) (A) (A) (A) (A) (A) (A) (A)
                 (A) (A) (A) (A) (A) (A) (A) (A) (A) (A) (A) (A)
                 (A) (A) (A) (A) (A) (A) (A) (A) (A) (A) (A) (A)
                 (A) (A) (A) (A) (A) (A) (A) (A) (A) (A) (A) (A)
                 (A) (A) (A) (A) (A) (A) (A) (A) (A) (A) (A) (A)
                 (A) (A) (A) (A) (A) (A) (A) (A) (A) (A) (A) (A)
                 (A) (A) (A) (A) (A) (A) (A) (A) (A) (A) (A) (A)
                 (A) (A) (A) (A) (A) (A) (A) (A) (A) (A) (A) (A)
                 (A) (A) (A) (A) (A) (A) (A) (A) (A) (A) (A) (A)
                 (A) (A) (A) (A) (A) (A) (A) (A) (A) (A) (A) (A)
                 (A) (A) (A) (A) (A) (A) (A) (A) (A) (A) (A) (A)
                 (A) (A) (A) (A) (A) (A) (A) (A) (A) (A) (A) (A)
                 (A) (A) (A) (A) (A) (A) (A) (A) (A) (A) (A) (A)
                 (A) (A) (A) (A) (A) (A) (A) (A) (A) (A) (A) (A)
                 (A) (A) (A) (A) (A) (A) (A) (A) (A) (A) (A) (A)
                 (A) (A) (A) (A) (A) (A) (A) (A)
 The electronic state is 1-A.
 Alpha  occ. eigenvalues --  -14.38090 -14.38085 -14.38085 -10.36076 -10.27220
 Alpha  occ. eigenvalues --  -10.27220 -10.27219 -10.25669  -0.97412  -0.94672
 Alpha  occ. eigenvalues --   -0.94672  -0.89099  -0.74758  -0.63618  -0.63618
 Alpha  occ. eigenvalues --   -0.51266  -0.46177  -0.46177  -0.40963  -0.40842
 Alpha  occ. eigenvalues --   -0.40842  -0.39181  -0.39181  -0.37316  -0.37316
 Alpha  occ. eigenvalues --   -0.37026  -0.36940
 Alpha virt. eigenvalues --   -0.04123  -0.03852  -0.03852   0.00852   0.00852
 Alpha virt. eigenvalues --    0.03542   0.06733   0.11254   0.11829   0.11829
 Alpha virt. eigenvalues --    0.15581   0.15581   0.16988   0.31386   0.31386
 Alpha virt. eigenvalues --    0.33788   0.42782   0.42783   0.43346   0.47071
 Alpha virt. eigenvalues --    0.47376   0.47376   0.47842   0.47842   0.54270
 Alpha virt. eigenvalues --    0.59084   0.60194   0.60195   0.62143   0.62379
 Alpha virt. eigenvalues --    0.62645   0.62645   0.67995   0.67995   0.68540
 Alpha virt. eigenvalues --    0.68540   0.71355   0.71355   0.72327   0.73114
 Alpha virt. eigenvalues --    0.74140   0.74140   0.77135   0.79300   0.79300
 Alpha virt. eigenvalues --    0.83369   0.83369   0.84598   0.84712   0.88681
 Alpha virt. eigenvalues --    0.88681   0.93460   0.98033   0.99179   0.99179
 Alpha virt. eigenvalues --    1.11303   1.11809   1.11809   1.18516   1.21693
 Alpha virt. eigenvalues --    1.21693   1.30155   1.30155   1.32125   1.32125
 Alpha virt. eigenvalues --    1.32977   1.34924   1.37971   1.38466   1.38466
 Alpha virt. eigenvalues --    1.45343   1.45343   1.47030   1.54581   1.54581
 Alpha virt. eigenvalues --    1.59298   1.60733   1.67732   1.67732   1.77373
 Alpha virt. eigenvalues --    1.80751   1.84207   1.84586   1.84586   1.89104
 Alpha virt. eigenvalues --    1.89817   1.89817   1.98190   1.98190   2.25906
 Alpha virt. eigenvalues --    2.28016   2.28017   2.35732   2.44914   2.44914
 Alpha virt. eigenvalues --    2.58600   2.61905   2.61905   2.71243   2.71469
 Alpha virt. eigenvalues --    2.71469   2.73881   2.74762   2.74762   2.75760
 Alpha virt. eigenvalues --    2.79651   2.79651   2.82741   2.84378   2.84378
 Alpha virt. eigenvalues --    2.86355   2.90192   2.90192   2.97594   2.97595
 Alpha virt. eigenvalues --    3.11089   3.13978   3.14115   3.14115   3.16386
 Alpha virt. eigenvalues --    3.16386   3.25896   3.28248   3.41370   3.44158
 Alpha virt. eigenvalues --    3.44158   3.61031   3.61031   3.62070   3.62125
 Alpha virt. eigenvalues --    3.62581   3.62581   3.63367   3.63367   3.64334
 Alpha virt. eigenvalues --    3.67067   3.67067   3.70351   3.71512   3.71513
 Alpha virt. eigenvalues --    3.74030   3.74533   3.75615   3.75615   3.85981
 Alpha virt. eigenvalues --    3.91321   3.94737   3.94737   4.07023   4.07023
 Alpha virt. eigenvalues --    4.10536   4.10536   4.12191   4.12437   4.12437
 Alpha virt. eigenvalues --    4.13822   4.18839   4.18839   4.22358   4.22358
 Alpha virt. eigenvalues --    4.23106   4.24497   4.31059   4.32242   4.33879
 Alpha virt. eigenvalues --    4.33879   4.37833   4.37833   4.41951   4.47508
 Alpha virt. eigenvalues --    4.47508   4.49550   4.50495   4.50495   4.65650
 Alpha virt. eigenvalues --    4.65650   4.74300   4.74300   4.76483   4.78373
 Alpha virt. eigenvalues --    4.78373   4.84379   4.84380   4.84536   4.99486
 Alpha virt. eigenvalues --    4.99486   5.02726   5.24496   5.24496   5.26825
 Alpha virt. eigenvalues --    5.33790   5.33790   5.38540   5.39735   5.39735
 Alpha virt. eigenvalues --    5.44152   5.62190   6.12409   6.28193   6.28193
 Alpha virt. eigenvalues --    7.45784  10.19371  10.85422  10.85422  11.35623
 Alpha virt. eigenvalues --   11.41359  11.41359  11.64740  13.08526  18.64610
 Alpha virt. eigenvalues --   18.64623  22.29123
          Condensed to atoms (all electrons):
               1          2          3          4          5          6
     1  C    4.735111   0.393951  -0.018344  -0.018344  -0.018344   0.391775
     2  C    0.393951   4.999953   0.373549   0.373549   0.373549  -0.036055
     3  H   -0.018344   0.373549   0.519213  -0.023687  -0.023687   0.003930
     4  H   -0.018344   0.373549  -0.023687   0.519214  -0.023687  -0.002540
     5  H   -0.018344   0.373549  -0.023687  -0.023687   0.519213  -0.002542
     6  C    0.391775  -0.036055   0.003930  -0.002540  -0.002542   4.402706
     7  C    0.391775  -0.036055  -0.002540  -0.002542   0.003931  -0.041294
     8  C    0.391773  -0.036056  -0.002542   0.003931  -0.002540  -0.041289
     9  N   -0.007092  -0.002304   0.000021   0.000269   0.000268   1.004944
    10  N   -0.007093  -0.002304   0.000269   0.000269   0.000021  -0.005189
    11  N   -0.007093  -0.002304   0.000269   0.000021   0.000269  -0.005197
               7          8          9         10         11
     1  C    0.391775   0.391773  -0.007092  -0.007093  -0.007093
     2  C   -0.036055  -0.036056  -0.002304  -0.002304  -0.002304
     3  H   -0.002540  -0.002542   0.000021   0.000269   0.000269
     4  H   -0.002542   0.003931   0.000269   0.000269   0.000021
     5  H    0.003931  -0.002540   0.000268   0.000021   0.000269
     6  C   -0.041294  -0.041289   1.004944  -0.005189  -0.005197
     7  C    4.402705  -0.041293  -0.005197   1.004942  -0.005189
     8  C   -0.041293   4.402702  -0.005189  -0.005197   1.004944
     9  N   -0.005197  -0.005189   6.309467  -0.000034  -0.000034
    10  N    1.004942  -0.005197  -0.000034   6.309472  -0.000034
    11  N   -0.005189   1.004944  -0.000034  -0.000034   6.309466
 Mulliken charges:
               1
     1  C   -0.228074
     2  C   -0.399474
     3  H    0.173549
     4  H    0.173548
     5  H    0.173548
     6  C    0.330750
     7  C    0.330756
     8  C    0.330755
     9  N   -0.295120
    10  N   -0.295121
    11  N   -0.295118
 Sum of Mulliken charges =  -0.00000
 Mulliken charges with hydrogens summed into heavy atoms:
               1
     1  C   -0.228074
     2  C    0.121171
     6  C    0.330750
     7  C    0.330756
     8  C    0.330755
     9  N   -0.295120
    10  N   -0.295121
    11  N   -0.295118
 Electronic spatial extent (au):  <R**2>=            866.6299
 Charge=             -0.0000 electrons
 Dipole moment (field-independent basis, Debye):
    X=             -0.0000    Y=              0.0000    Z=              3.6476  Tot=              3.6476
 Quadrupole moment (field-independent basis, Debye-Ang):
   XX=            -54.9577   YY=            -54.9576   ZZ=            -41.5622
   XY=             -0.0000   XZ=             -0.0000   YZ=              0.0001
 Traceless Quadrupole moment (field-independent basis, Debye-Ang):
   XX=             -4.4652   YY=             -4.4651   ZZ=              8.9303
   XY=             -0.0000   XZ=             -0.0000   YZ=              0.0001
 Octapole moment (field-independent basis, Debye-Ang**2):
  XXX=             12.7539  YYY=            -14.5747  ZZZ=              8.5760  XYY=            -12.7541
  XXY=             14.5748  XXZ=             11.0752  XZZ=              0.0000  YZZ=             -0.0001
[...]
 Alpha virt. eigenvalues --    6.70543   6.71428   6.77255   6.77255   6.95094
 Alpha virt. eigenvalues --    6.95094   6.97090   6.97090   7.00726   7.02263
 Alpha virt. eigenvalues --    7.02264   7.06048   7.11438   7.18862   7.33170
 Alpha virt. eigenvalues --    7.41000   7.41000   7.45704   7.45988   7.45989
 Alpha virt. eigenvalues --    7.60703   7.60703   7.64517   7.64517   7.65833
 Alpha virt. eigenvalues --    7.68162   7.68162   7.68370   7.70678   7.70679
 Alpha virt. eigenvalues --    7.72671   7.73509   7.73510   7.75480   7.76845
 Alpha virt. eigenvalues --    7.79743   7.79743   7.80262   7.86808   7.91501
 Alpha virt. eigenvalues --    7.91501   7.94533   7.94533   7.96177   7.96826
 Alpha virt. eigenvalues --    7.96826   7.97506   8.01027   8.01028   8.05427
 Alpha virt. eigenvalues --    8.07973   8.07974   8.12941   8.20653   8.20653
 Alpha virt. eigenvalues --    8.29274   8.29274   8.34194   8.39525   8.39526
 Alpha virt. eigenvalues --    8.42360   8.42755   8.50977   8.50978   8.54806
 Alpha virt. eigenvalues --    8.54807   8.56154   8.62480   8.62481   8.62621
 Alpha virt. eigenvalues --    8.76348   8.83925   8.83926   8.84881   8.87116
 Alpha virt. eigenvalues --    8.87470   8.87470   8.96990   8.96990   9.03201
 Alpha virt. eigenvalues --    9.03306   9.03307   9.10753   9.10754   9.12129
 Alpha virt. eigenvalues --    9.19750   9.19751   9.24971   9.31501   9.31543
 Alpha virt. eigenvalues --    9.31543   9.33262   9.39797   9.39798   9.51526
 Alpha virt. eigenvalues --    9.51526   9.53469   9.54912   9.54913   9.61962
 Alpha virt. eigenvalues --    9.61963   9.63653   9.66479   9.66480   9.67012
 Alpha virt. eigenvalues --    9.75103   9.76982   9.77834   9.77835   9.79643
 Alpha virt. eigenvalues --    9.82220   9.82220   9.88754   9.89304   9.89305
 Alpha virt. eigenvalues --    9.93792   9.96042   9.96505   9.96505  10.02058
 Alpha virt. eigenvalues --   10.02058  10.02601  10.03629  10.03629  10.03861
 Alpha virt. eigenvalues --   10.04284  10.06890  10.10021  10.10022  10.15694
 Alpha virt. eigenvalues --   10.15694  10.21184  10.21184  10.21545  10.21545
 Alpha virt. eigenvalues --   10.22436  10.28606  10.28607  10.30033  10.32839
 Alpha virt. eigenvalues --   10.35545  10.38842  10.38842  10.47623  10.50156
 Alpha virt. eigenvalues --   10.50156  10.52278  10.59239  10.59271  10.59271
 Alpha virt. eigenvalues --   10.72919  10.73730  10.73730  10.74037  10.78650
 Alpha virt. eigenvalues --   10.78651  10.81790  10.81790  10.85430  10.85459
 Alpha virt. eigenvalues --   10.85459  10.85462  10.85487  10.85487  10.88468
 Alpha virt. eigenvalues --   10.99146  10.99147  11.00392  11.00411  11.02517
 Alpha virt. eigenvalues --   11.02517  11.09442  11.09443  11.14252  11.14346
 Alpha virt. eigenvalues --   11.14347  11.15326  11.15326  11.15489  11.19579
 Alpha virt. eigenvalues --   11.19579  11.21466  11.26647  11.27179  11.32695
 Alpha virt. eigenvalues --   11.33017  11.33018  11.41034  11.41035  11.44548
 Alpha virt. eigenvalues --   11.44629  11.44629  11.48846  11.48846  11.55804
 Alpha virt. eigenvalues --   11.61994  11.61994  11.64160  11.69629  11.69630
 Alpha virt. eigenvalues --   11.78016  11.84756  11.84757  11.87936  11.87937
 Alpha virt. eigenvalues --   11.92294  12.01426  12.08559  12.08560  12.09469
 Alpha virt. eigenvalues --   12.09469  12.15225  12.15226  12.16369  12.20168
 Alpha virt. eigenvalues --   12.21915  12.21915  12.21999  12.25338  12.25339
 Alpha virt. eigenvalues --   12.32797  12.35074  12.39307  12.41950  12.41950
 Alpha virt. eigenvalues --   12.44872  12.49579  12.49579  12.57322  12.57322
 Alpha virt. eigenvalues --   12.69638  12.81401  12.81401  12.84832  12.84832
 Alpha virt. eigenvalues --   12.89512  12.89512  12.92387  12.93553  13.02687
 Alpha virt. eigenvalues --   13.02688  13.06538  13.07561  13.07561  13.22179
 Alpha virt. eigenvalues --   13.22179  13.24787  13.28201  13.28201  13.30206
 Alpha virt. eigenvalues --   13.35315  13.35316  13.44269  13.44270  13.65053
 Alpha virt. eigenvalues --   13.74318  13.74318  13.78820  13.79277  13.79277
 Alpha virt. eigenvalues --   13.81962  13.84840  13.84840  14.07005  14.08929
 Alpha virt. eigenvalues --   14.08930  14.08930  14.08943  14.09001  14.09001
 Alpha virt. eigenvalues --   14.18693  14.19300  14.19301  14.24846  14.26036
 Alpha virt. eigenvalues --   14.26036  14.37233  14.39785  14.40490  14.40490
 Alpha virt. eigenvalues --   14.40813  14.40813  14.43401  14.44872  14.44872
 Alpha virt. eigenvalues --   14.45315  14.46933  14.47621  14.47622  14.49416
 Alpha virt. eigenvalues --   14.49416  14.52161  14.55596  14.61008  14.61008
 Alpha virt. eigenvalues --   14.78861  14.89770  14.89770  15.09283  15.12072
 Alpha virt. eigenvalues --   15.12751  15.12751  15.13656  15.17983  15.17983
 Alpha virt. eigenvalues --   15.19628  15.19628  15.59136  15.77863  15.77863
 Alpha virt. eigenvalues --   16.03389  16.03532  16.06112  16.06112  16.08554
 Alpha virt. eigenvalues --   16.08554  16.13984  16.13984  16.22582  16.25428
 Alpha virt. eigenvalues --   16.25428  16.35770  16.98644  17.02500  17.05937
 Alpha virt. eigenvalues --   17.05937  17.58354  17.58355  17.83171  17.83171
 Alpha virt. eigenvalues --   17.83852  17.85845  17.85845  17.86461  18.11584
 Alpha virt. eigenvalues --   18.11998  18.11998  18.16777  18.16777  18.19254
 Alpha virt. eigenvalues --   19.51331  19.51331  19.52503  19.53409  19.53483
 Alpha virt. eigenvalues --   19.53483  19.80976  19.91680  19.91681  21.03161
 Alpha virt. eigenvalues --   21.05887  21.05887  39.34584  39.67134  39.67134
 Alpha virt. eigenvalues --   40.24903  42.12576  52.00369  52.07062  52.07062
          Condensed to atoms (all electrons):
               1          2          3          4          5          6
     1  C    4.279585   0.360901  -0.022832  -0.022833  -0.022832   0.343635
     2  C    0.360901   5.012278   0.404750   0.404750   0.404750  -0.001595
     3  H   -0.022832   0.404750   0.422819  -0.013685  -0.013685   0.008349
     4  H   -0.022833   0.404750  -0.013685   0.422820  -0.013685  -0.005336
     5  H   -0.022832   0.404750  -0.013685  -0.013685   0.422819  -0.005331
     6  C    0.343635  -0.001595   0.008349  -0.005336  -0.005331   4.801983
     7  C    0.343635  -0.001595  -0.005336  -0.005331   0.008349  -0.046848
     8  C    0.343636  -0.001595  -0.005331   0.008349  -0.005336  -0.046848
     9  N   -0.045493   0.001083  -0.000198  -0.000341  -0.000343   0.814644
    10  N   -0.045493   0.001083  -0.000341  -0.000343  -0.000198  -0.006757
    11  N   -0.045493   0.001083  -0.000344  -0.000198  -0.000341  -0.006760
               7          8          9         10         11
     1  C    0.343635   0.343636  -0.045493  -0.045493  -0.045493
     2  C   -0.001595  -0.001595   0.001083   0.001083   0.001083
     3  H   -0.005336  -0.005331  -0.000198  -0.000341  -0.000344
     4  H   -0.005331   0.008349  -0.000341  -0.000343  -0.000198
     5  H    0.008349  -0.005336  -0.000343  -0.000198  -0.000341
     6  C   -0.046848  -0.046848   0.814644  -0.006757  -0.006760
     7  C    4.801983  -0.046848  -0.006760   0.814644  -0.006757
     8  C   -0.046848   4.801980  -0.006757  -0.006760   0.814643
     9  N   -0.006760  -0.006757   6.600169   0.001632   0.001632
    10  N    0.814644  -0.006760   0.001632   6.600169   0.001632
    11  N   -0.006757   0.814643   0.001632   0.001632   6.600171
 Mulliken charges:
               1
     1  C    0.533585
     2  C   -0.585891
     3  H    0.225835
     4  H    0.225835
     5  H    0.225835
     6  C    0.150866
     7  C    0.150866
     8  C    0.150867
     9  N   -0.359265
    10  N   -0.359265
    11  N   -0.359267
 Sum of Mulliken charges =  -0.00000
 Mulliken charges with hydrogens summed into heavy atoms:
               1
     1  C    0.533585
     2  C    0.091614
     6  C    0.150866
     7  C    0.150866
     8  C    0.150867
     9  N   -0.359265
    10  N   -0.359265
    11  N   -0.359267
 Electronic spatial extent (au):  <R**2>=            871.3515
 Charge=             -0.0000 electrons
 Dipole moment (field-independent basis, Debye):
    X=             -0.0000    Y=              0.0000    Z=              4.0478  Tot=              4.0478
 Quadrupole moment (field-independent basis, Debye-Ang):
   XX=            -57.5170   YY=            -57.5169   ZZ=            -42.7944
   XY=             -0.0000   XZ=             -0.0001   YZ=              0.0001
 Traceless Quadrupole moment (field-independent basis, Debye-Ang):
   XX=             -4.9076   YY=             -4.9074   ZZ=              9.8151
   XY=             -0.0000   XZ=             -0.0001   YZ=              0.0001
 Octapole moment (field-independent basis, Debye-Ang**2):
  XXX=             13.0393  YYY=            -14.9018  ZZZ=             12.1231  XYY=            -13.0395
  XXY=             14.9019  XXZ=             11.8961  XZZ=              0.0000  YZZ=             -0.0001
  YYZ=             11.8961  XYZ=              0.0001
 Hexadecapole moment (field-independent basis, Debye-Ang**3):
 XXXX=           -552.1279 YYYY=           -552.1226 ZZZZ=           -234.9724 XXXY=              0.0002
 XXXZ=             -7.4460 YYYX=             -0.0001 YYYZ=              8.5091 ZZZX=             -0.0006
 ZZZY=              0.0014 XXYY=           -184.0419 XXZZ=           -124.1282 YYZZ=           -124.1276
 XXYZ=             -8.5068 YYXZ=              7.4451 ZZXY=             -0.0002
 N-N= 2.894767696535D+02 E-N=-1.405606919811D+03  KE= 3.539158232590D+02
 1\1\GINC-ARTEMIY-VIRTUALBOX\SP\RHF\GFHFB2\C5H3N3\ARTEMIY\16-Jun-2022\0
 \\#N Geom=AllCheck Guess=TCheck SCRF=Check HF/GFHFB2 SCF=Tight\\Title 
 Card Required\\0,1\C,0,0.0000009929,-0.0000046124,0.213083016\C,0,0.00
 00067319,-0.0000104063,1.7735811409\H,0,0.9417502573,0.4176819453,2.13
 19645348\H,0,-0.8325924569,0.6067198208,2.1319635553\H,0,-0.1091370626
 ,-1.0244284753,2.1319655571\C,0,-1.2727657988,-0.5645623007,-0.2839577
 236\C,0,0.1474552737,1.3845280283,-0.283942533\C,0,1.1253049795,-0.819
 9696818,-0.2839632172\N,0,-2.2786085778,-1.0103238362,-0.6310354541\N,
 0,0.2643199514,2.478501265,-0.631003574\N,0,2.0142757183,-1.4681697467
 ,-0.6310273021\\Version=ES64L-G16RevA.03\State=1-A\HF=-354.5243329\RMS
 D=5.343e-09\Dipole=0.0000078,-0.0000103,1.5925297\Quadrupole=-3.648622
 4,-3.6486332,7.2972557,0.0000612,-0.0000202,-0.0000705\PG=C01 [X(C5H3N
 3)]\\@


  ON THE CHOICE OF THE CORRECT LANGUAGE -
 I SPEAK SPANISH TO GOD, ITALIAN TO WOMEN,
 FRENCH TO MEN, AND GERMAN TO MY HORSE.
          -- CHARLES V
 Diagonal vibrational polarizability:
        0.0000000       0.0000000       0.0000000
 
 Temperature=              298.150000 Pressure=                      1.000000
 E(ZPE)=                     0.069763 E(Thermal)=                    0.077823
 E(QCISD(T))=             -355.558393 E(Empiric)=                   -0.131993
 E(CCSD(T))=                -0.131993 E(Empiric)=                   -0.019801
 DE(Plus)=                  -0.224321 DE(2DF)=                      -0.477530
 E(Delta-G3XP)=             -0.031193 DE(HF)=                     -356.373467
 G4(0 K)=                 -356.365407 G4 Energy=                  -356.364463
 G4 Enthalpy=             -356.405906 G4 Free Energy=    
 1\1\GINC-ARTEMIY-VIRTUALBOX\Mixed\G4\G4\C5H3N3\ARTEMIY\16-Jun-2022\0\\
 # g4 geom=gic\\Title Card Required\\0,1\C,0,0.0000009929,-0.0000046124
 ,0.213083016\C,0,0.0000067319,-0.0000104063,1.7735811409\H,0,0.9417502
 573,0.4176819453,2.1319645348\H,0,-0.8325924569,0.6067198208,2.1319635
 553\H,0,-0.1091370626,-1.0244284753,2.1319655571\C,0,-1.2727657988,-0.
 5645623007,-0.2839577236\C,0,0.1474552737,1.3845280283,-0.283942533\C,
 0,1.1253049795,-0.8199696818,-0.2839632172\N,0,-2.2786085778,-1.010323
 8362,-0.6310354541\N,0,0.2643199514,2.478501265,-0.631003574\N,0,2.014
 2757183,-1.4681697467,-0.6310273021\\Version=ES64L-G16RevA.03\State=1-
 A\MP2/GTBas1=-355.4862426\MP4/GTBas1=-355.5705754\CCSD(T)/G3Bas1=-355.
 5583929\MP2/GTBas2=-355.5051801\MP4/GTBas2=-355.5903759\MP2/GTBas3=-35
 5.6983887\MP4/GTBas3=-355.7948959\HF/GTLargeXP=-354.4942573\MP2/GTLarg
 eXP=-356.194856\HF/GFHFB1=-354.5197459\HF/GFHFB2=-354.5243329\G4=-356.
 3734669\FreqCoord=0.0000018764,-0.0000087161,0.402668542,0.0000127215,
 -0.0000196651,3.351582616,1.7796500641,0.7893044839,4.028829078,-1.573
 3717169,1.1465342957,4.028827227,-0.2062391584,-1.9358892525,4.0288310
 099,-2.4051787805,-1.0668681285,-0.5366023285,0.2786500828,2.616378785
 2,-0.5365736225,2.1265182179,-1.5495181291,-0.53661271,-4.3059461571,-
 1.9092353475,-1.1924841831,0.4994923175,4.6836885902,-1.1924239385,3.8
 06429447,-2.7744387256,-1.1924687781\PG=C01 [X(C5H3N3)]\NImag=0\\0.479
 33286,0.00000158,0.47935634,0.00000247,0.00001071,0.37012204,-0.071063
 75,0.00000065,0.00000086,0.59657943,-0.00000004,-0.07106378,0.00000207
 ,-0.00000104,0.59657711,-0.00000064,-0.00000058,-0.13357447,-0.0000031
 4,-0.00000068,0.41183014,0.00152327,0.00137488,0.00222746,-0.25637271,
 -0.09248889,-0.07770052,0.27205684,0.00137429,-0.00096665,0.00098490,-
 0.09248881,-0.08885994,-0.03446496,0.10041156,0.09019596,-0.02782771,-
 0.01234226,-0.01563270,-0.07268731,-0.03224268,-0.07336994,0.08286845,
 0.03675868,0.08387475,0.00084607,-0.00176597,-0.00197026,-0.21083963,0
 .11878144,0.06870005,-0.01782709,0.01578927,0.00923086,0.22262378,-0.0
 0176501,-0.00028960,0.00143222,0.11878125,-0.13439486,-0.05005954,-0.0
 1033829,0.00746233,0.00536088,-0.12895644,0.13963249,0.02460225,-0.017
 93048,-0.01563663,0.06426700,-0.04683136,-0.07336455,-0.00789479,0.007
 18552,0.00412166,-0.07326820,0.05339078,0.08387203,-0.00153332,0.00039
 074,-0.00025871,-0.05063654,-0.02629181,0.00900425,-0.00121898,-0.0253
 7803,0.01016905,0.00350163,0.02265213,-0.00925691,0.04869623,0.0003907
 3,0.00209085,-0.00242212,-0.02629162,-0.29459197,0.08452490,0.00074976
 ,-0.00914448,0.00324408,-0.00347596,-0.01386546,0.00531343,0.02854429,
 0.31355235,0.00322575,0.03027043,-0.01562852,0.00842333,0.07907250,-0.
 07337186,0.00002589,-0.01067507,0.00412249,-0.00227481,-0.01043084,0.0
 0412279,-0.00960243,-0.09014407,0.08387199,-0.20381263,-0.06307828,-0.
 05272851,-0.00251082,-0.00156209,-0.01510953,-0.00021111,-0.00036910,0
 .00072986,0.00095641,0.00040893,0.00157539,0.00037972,0.00009903,0.001
 03278,1.22858020,-0.06305858,-0.08961894,-0.02339124,-0.00156261,0.000
 31886,-0.00670115,-0.00036907,0.00045812,0.00032372,-0.00042180,-0.000
 07973,-0.00003024,0.00093118,0.00049638,0.00118951,0.49952354,0.323046
 42,-0.05193451,-0.02304301,-0.07694285,-0.03311366,-0.01468795,-0.0205
 6958,0.00070274,0.00031140,-0.00667432,-0.00001801,-0.00025266,0.00135
 490,-0.00020121,0.00015533,0.00135209,0.39560208,0.17535310,0.24165487
 ,-0.06355101,-0.01792975,0.00611108,0.00096421,-0.00044354,0.00175078,
 0.00018632,0.00086883,-0.00081538,0.00002199,-0.00072467,0.00051282,0.
 00061038,-0.00010521,-0.00008454,-0.00817550,-0.03417287,0.00947608,0.
 11683074,-0.01790670,-0.22988604,0.05735680,-0.00044431,-0.00315729,0.
 01643648,0.00003677,0.00069136,-0.00134823,0.00010733,0.00085561,-0.00
 148930,-0.00010527,-0.00036350,-0.00079383,-0.01526736,-0.02408351,0.0
 0324464,0.14232289,1.43481441,0.00601216,0.05649179,-0.07693388,0.0038
 3604,0.03602092,-0.02057111,-0.00020823,0.00014336,0.00135252,0.000234
 05,0.00009697,0.00135261,-0.00008161,-0.00076400,-0.00667431,-0.000188
 10,-0.01001766,0.00303912,-0.04593355,-0.43026428,0.24164492,-0.172773
 16,0.08097260,0.04661612,-0.00174189,0.00200687,0.01335881,0.00091360,
 -0.00062242,-0.00154568,-0.00002883,0.00047433,-0.00064536,0.00017283,
 -0.00002928,-0.00075975,-0.04152184,0.01492642,0.00877096,0.00130166,0
 .00979542,-0.00192770,0.98204377,0.08099584,-0.12065448,-0.03397340,0.
 00200575,-0.00045020,-0.00973437,0.00020915,-0.00003586,0.00029996,0.0
 0047433,0.00027580,0.00047012,-0.00086134,0.00070368,0.00138007,-0.003
 98181,0.00925515,0.00484586,0.02870181,-0.03356033,-0.00983000,-0.6418
 7773,0.56960973,0.04591991,-0.03345617,-0.07694102,0.02927678,-0.02133
 291,-0.02057077,-0.00003502,-0.00025057,0.00135435,-0.00062111,0.00045
 282,-0.00667429,0.00022943,0.00010935,0.00135259,-0.00754997,0.0065843
 3,0.00303953,-0.00858055,0.00517055,0.00303952,-0.34965152,0.25491830,
 0.24165022,0.00796503,-0.00261097,-0.00218016,-0.00255789,-0.00121261,
 0.00329548,0.00088082,0.00033146,-0.00095066,-0.00000656,-0.00020969,-
 0.00050540,-0.00006212,0.00014182,-0.00028450,-0.97647791,-0.41868180,
 -0.32774376,-0.00172910,-0.00058102,-0.00074729,0.00106835,-0.00034375
 ,0.00018425,0.97021811,-0.00263415,0.01272387,-0.00096909,-0.00121222,
 -0.00036100,0.00146109,0.00033130,0.00028009,-0.00042148,0.00009119,-0
 .00000028,0.00007481,-0.00015945,0.00005637,-0.00042596,-0.41865877,-0
 .21735494,-0.14524586,0.00219175,0.00190734,0.00092653,-0.00311631,-0.
 00089240,-0.00117761,0.42292367,0.20337995,-0.00282267,-0.00124600,0.0
 1372284,0.00246271,0.00109230,0.00118731,-0.00018366,-0.00008133,0.000
 74973,0.00000102,0.00018383,0.00005014,0.00013636,-0.00012400,0.000051
 18,-0.32591186,-0.14444191,-0.14612316,-0.00218506,-0.00116866,-0.0000
 6503,-0.00233441,-0.00083594,-0.00006565,0.32994240,0.14622548,0.13064
 007,0.01380510,-0.00073850,0.00025097,0.00013978,-0.00034522,-0.000382
 45,0.00005080,-0.00012290,0.00031855,0.00003498,0.00010320,-0.00022707
 ,0.00014331,0.00009452,0.00011031,0.00109691,0.00310034,-0.00111149,-0
 .04455880,-0.11936095,0.03807643,0.00030095,-0.00336358,0.00117611,0.0
 0014017,-0.00049875,0.00030337,0.02882630,-0.00075998,0.00688301,0.002
 37260,-0.00034476,-0.00305846,-0.00358476,0.00017776,-0.00005612,0.000
 40063,-0.00019750,-0.00003996,0.00045924,0.00009439,0.00101771,0.00103
 398,0.00032802,-0.00092054,0.00042968,-0.11933961,-1.14929468,0.356448
 70,-0.00059118,-0.00012252,0.00018386,0.00112290,0.00034093,0.00052305
 ,0.12056403,1.14478968,0.00033177,0.00306712,0.01372260,-0.00028543,-0
 .00267891,0.00118742,0.00015973,-0.00009202,0.00005119,-0.00017587,-0.
 00005607,0.00005160,0.00002138,0.00019966,0.00074974,0.00044359,0.0024
 3974,-0.00006535,0.03785721,0.35446007,-0.14611900,0.00008052,0.002476
 82,-0.00006495,-0.00040566,-0.00044911,-0.00007371,-0.03832858,-0.3588
 4294,0.13063417,0.00926153,0.00338302,0.00192868,-0.00196019,0.0015569
 4,-0.00291309,0.00001824,0.00020584,0.00050997,0.00071725,-0.00042574,
 0.00084027,-0.00005315,-0.00011808,0.00018796,0.00169658,-0.00021476,-
 0.00042922,-0.00190088,0.00140319,0.00092780,-0.76973544,0.53804133,0.
 28965170,0.00056110,0.00074175,0.00059181,0.00002051,-0.00105408,0.000
 30134,0.76137444,0.00336202,0.01142543,-0.00140345,0.00155771,-0.00095
 846,0.00212356,-0.00009493,-0.00002481,-0.00003330,-0.00042589,0.00044
 367,-0.00061252,0.00018316,0.00004805,-0.00047674,0.00255789,-0.001517
 27,-0.00111051,-0.00136964,0.00207664,0.00074767,0.53806127,-0.4241285
 8,-0.21120196,-0.00088001,-0.00007993,-0.00012681,0.00056783,0.0004609
 5,-0.00052437,-0.54351940,0.41225432,0.00249121,-0.00182155,0.01372258
 ,-0.00217719,0.00158671,0.00118740,0.00003795,0.00018007,0.00005026,0.
 00016228,-0.00011840,0.00074973,-0.00015958,-0.00009257,0.00005181,0.0
 0210428,-0.00130821,-0.00006525,0.00189111,-0.00160425,-0.00006535,0.2
 8803802,-0.21001742,-0.14611954,-0.00060471,0.00000119,-0.00007372,-0.
 00018614,0.00057597,-0.00007373,-0.29159722,0.21261844,0.13063581\\0.0
 0000144,0.00000004,0.00027161,-0.00000010,0.00000038,-0.00018883,0.000
 00177,0.00000101,-0.00000811,-0.00000076,0.00000057,-0.00000907,-0.000
 00100,-0.00000293,-0.00000768,0.00008080,0.00001638,-0.00003579,-0.000
 02654,-0.00007877,-0.00003476,-0.00005557,0.00006311,-0.00003588,-0.00
 002014,0.00000230,0.00001584,0.00001185,0.00001641,0.00001601,0.000008
 24,-0.00001850,0.00001666\\\@
 Job cpu time:       0 days  4 hours 27 minutes 26.3 seconds.
 Elapsed time:       0 days  0 hours 44 minutes 35.2 seconds.
 File lengths (MBytes):  RWF=   8592 Int=      0 D2E=      0 Chk=     53 Scr=      1
 Normal termination of Gaussian 16 at Thu Jun 16 19:40:12 2022.
