 Entering Gaussian System, Link 0=/home/artemiy/opt/gaussian/g16/g16
 Input=1,1,1-Triphenylbutane_B3LYP.gjf
 Output=1,1,1-Triphenylbutane_B3LYP.log
 Initial command:
 /home/artemiy/opt/gaussian/g16/l1.exe "/home/artemiy/opt/gaussian/scr/Gau-15835.inp" -scrdir="/home/artemiy/opt/gaussian/scr/"
 Entering Link 1 = /home/artemiy/opt/gaussian/g16/l1.exe PID=     15840.
  
 Copyright (c) 1988,1990,1992,1993,1995,1998,2003,2009,2016,
            Gaussian, Inc.  All Rights Reserved.
  
 This is part of the Gaussian(R) 16 program.  It is based on
 the Gaussian(R) 09 system (copyright 2009, Gaussian, Inc.),
 the Gaussian(R) 03 system (copyright 2003, Gaussian, Inc.),
 the Gaussian(R) 98 system (copyright 1998, Gaussian, Inc.),
 the Gaussian(R) 94 system (copyright 1995, Gaussian, Inc.),
 the Gaussian 92(TM) system (copyright 1992, Gaussian, Inc.),
 the Gaussian 90(TM) system (copyright 1990, Gaussian, Inc.),
 the Gaussian 88(TM) system (copyright 1988, Gaussian, Inc.),
 the Gaussian 86(TM) system (copyright 1986, Carnegie Mellon
 University), and the Gaussian 82(TM) system (copyright 1983,
 Carnegie Mellon University). Gaussian is a federally registered
 trademark of Gaussian, Inc.
  
 This software contains proprietary and confidential information,
 including trade secrets, belonging to Gaussian, Inc.
  
 This software is provided under written license and may be
 used, copied, transmitted, or stored only in accord with that
 written license.
  
 The following legend is applicable only to US Government
 contracts under FAR:
  
                    RESTRICTED RIGHTS LEGEND
  
 Use, reproduction and disclosure by the US Government is
 subject to restrictions as set forth in subparagraphs (a)
 and (c) of the Commercial Computer Software - Restricted
 Rights clause in FAR 52.227-19.
  
 Gaussian, Inc.
 340 Quinnipiac St., Bldg. 40, Wallingford CT 06492
  
  
 ---------------------------------------------------------------
 Warning -- This program may not be used in any manner that
 competes with the business of Gaussian, Inc. or will provide
 assistance to any competitor of Gaussian, Inc.  The licensee
 of this program is prohibited from giving any competitor of
 Gaussian, Inc. access to this program.  By using this program,
 the user acknowledges that Gaussian, Inc. is engaged in the
 business of creating and licensing software in the field of
 computational chemistry and represents and warrants to the
 licensee that it is not a competitor of Gaussian, Inc. and that
 it will not use this program in any manner prohibited above.
 ---------------------------------------------------------------
  

 Cite this work as:
 Gaussian 16, Revision A.03,
 M. J. Frisch, G. W. Trucks, H. B. Schlegel, G. E. Scuseria, 
 M. A. Robb, J. R. Cheeseman, G. Scalmani, V. Barone, 
 G. A. Petersson, H. Nakatsuji, X. Li, M. Caricato, A. V. Marenich, 
 J. Bloino, B. G. Janesko, R. Gomperts, B. Mennucci, H. P. Hratchian, 
 J. V. Ortiz, A. F. Izmaylov, J. L. Sonnenberg, D. Williams-Young, 
 F. Ding, F. Lipparini, F. Egidi, J. Goings, B. Peng, A. Petrone, 
 T. Henderson, D. Ranasinghe, V. G. Zakrzewski, J. Gao, N. Rega, 
 G. Zheng, W. Liang, M. Hada, M. Ehara, K. Toyota, R. Fukuda, 
 J. Hasegawa, M. Ishida, T. Nakajima, Y. Honda, O. Kitao, H. Nakai, 
 T. Vreven, K. Throssell, J. A. Montgomery, Jr., J. E. Peralta, 
 F. Ogliaro, M. J. Bearpark, J. J. Heyd, E. N. Brothers, K. N. Kudin, 
 V. N. Staroverov, T. A. Keith, R. Kobayashi, J. Normand, 
 K. Raghavachari, A. P. Rendell, J. C. Burant, S. S. Iyengar, 
 J. Tomasi, M. Cossi, J. M. Millam, M. Klene, C. Adamo, R. Cammi, 
 J. W. Ochterski, R. L. Martin, K. Morokuma, O. Farkas, 
 J. B. Foresman, and D. J. Fox, Gaussian, Inc., Wallingford CT, 2016.
 
 ******************************************
 Gaussian 16:  ES64L-G16RevA.03 25-Dec-2016
                16-Jul-2021 
 ******************************************
 %mem=46GB
 %nprocshared=6
 Will use up to    6 processors via shared memory.
 ----------------------------------------------------------------------
 # opt=(tight) freq B3LYP/6-311++G(3df,3pd) nosymm int=ultrafinegrid sc
 f=(tight,ssd,noincfock,xqc,fdiag,novaracc)
 ----------------------------------------------------------------------
 1/7=10,18=20,19=15,26=4,38=1/1,3;
 2/9=110,12=2,15=1,17=6,18=5,40=1/2;
 3/5=4,6=6,7=1616,11=2,25=1,30=1,71=1,74=-5,75=-5/1,2,3;
 4//1;
 5/5=100002,16=1,32=2,38=1/2;
 6/7=2,8=2,9=2,10=2,28=1/1;
 7/30=1/1,2,3,16;
 1/7=10,18=20,19=15,26=4/3(2);
 2/9=110,15=1/2;
 99//99;
 2/9=110,15=1/2;
 3/5=4,6=6,7=1616,11=2,25=1,30=1,71=1,74=-5,75=-5/1,2,3;
 4/5=5,16=3,69=1/1;
 5/5=100002,16=1,32=2,38=1/2;
 7/30=1/1,2,3,16;
 1/7=10,18=20,19=15,26=4/3(-5);
 2/9=110,15=1/2;
 6/7=2,8=2,9=2,10=2,19=2,28=1/1;
 99/9=1/99;
 -------------------
 CAS 43044-69-5
 -------------------
 Symbolic Z-matrix:
 Charge =  0 Multiplicity = 1
 C                    -0.05695  -0.00697   0.44752 
 C                    -1.34487   0.35849  -0.27427 
 C                    -1.99888  -0.52681  -1.12073 
 C                    -3.20426  -0.18368  -1.70993 
 C                    -3.78224   1.0467   -1.45571 
 C                    -3.14946   1.93014  -0.59729 
 C                    -1.94687   1.58606  -0.00947 
 H                    -1.46418   2.28383   0.66001 
 H                    -3.59581   2.89036  -0.38227 
 H                    -4.72161   1.31404  -1.91686 
 H                    -3.69451  -0.88638  -2.36809 
 H                    -1.57086  -1.49732  -1.32276 
 C                     0.98299   1.10911   0.34497 
 C                     0.94118   2.05276  -0.676 
 C                     1.92027   3.02371  -0.79093 
 C                     2.97122   3.06678   0.10712 
 C                     3.03867   2.11884   1.11245 
 C                     2.05967   1.14819   1.22435 
 H                     2.15115   0.40989   2.00569 
 H                     3.86136   2.12993   1.81276 
 H                     3.73459   3.82566   0.01943 
 H                     1.8602    3.74826  -1.59023 
 H                     0.13306   2.04016  -1.39255 
 C                    -0.4512   -0.23522   1.92594 
 H                    -0.69708   0.73546   2.36312 
 H                     0.39684  -0.63077   2.48437 
 C                    -1.64484  -1.17361   2.11169 
 H                    -2.54928  -0.69869   1.72744 
 H                    -1.49052  -2.0907    1.54026 
 C                    -1.84671  -1.51747   3.58303 
 H                    -2.00528  -0.61347   4.1674 
 H                    -0.97585  -2.03338   3.98337 
 H                    -2.71283  -2.16286   3.70875 
 C                     0.63904  -1.20002  -0.19623 
 C                     0.96877  -1.11476  -1.54823 
 C                     1.63828  -2.1382   -2.18954 
 C                     2.00468  -3.27548  -1.48917 
 C                     1.69595  -3.36811  -0.14555 
 C                     1.02319  -2.34015   0.49596 
 H                     0.80648  -2.45355   1.54573 
 H                     1.98015  -4.24709   0.41527 
 H                     2.52883  -4.07831  -1.98628 
 H                     1.87772  -2.04693  -3.23907 
 H                     0.69363  -0.23188  -2.10591 
 

 GradGradGradGradGradGradGradGradGradGradGradGradGradGradGradGradGradGrad
 Berny optimization.
 Initialization pass.
                           ----------------------------
                           !    Initial Parameters    !
                           ! (Angstroms and Degrees)  !
 --------------------------                            --------------------------
 ! Name  Definition              Value          Derivative Info.                !
 --------------------------------------------------------------------------------
 ! R1    R(1,2)                  1.5209         estimate D2E/DX2                !
 ! R2    R(1,13)                 1.5289         estimate D2E/DX2                !
 ! R3    R(1,24)                 1.547          estimate D2E/DX2                !
 ! R4    R(1,34)                 1.5239         estimate D2E/DX2                !
 ! R5    R(2,3)                  1.3885         estimate D2E/DX2                !
 ! R6    R(2,7)                  1.3926         estimate D2E/DX2                !
 ! R7    R(3,4)                  1.3849         estimate D2E/DX2                !
 ! R8    R(3,12)                 1.0798         estimate D2E/DX2                !
 ! R9    R(4,5)                  1.3829         estimate D2E/DX2                !
 ! R10   R(4,11)                 1.0804         estimate D2E/DX2                !
 ! R11   R(5,6)                  1.3848         estimate D2E/DX2                !
 ! R12   R(5,10)                 1.0801         estimate D2E/DX2                !
 ! R13   R(6,7)                  1.3821         estimate D2E/DX2                !
 ! R14   R(6,9)                  1.0805         estimate D2E/DX2                !
 ! R15   R(7,8)                  1.0808         estimate D2E/DX2                !
 ! R16   R(13,14)                1.3909         estimate D2E/DX2                !
 ! R17   R(13,18)                1.3907         estimate D2E/DX2                !
 ! R18   R(14,15)                1.3837         estimate D2E/DX2                !
 ! R19   R(14,23)                1.0801         estimate D2E/DX2                !
 ! R20   R(15,16)                1.3831         estimate D2E/DX2                !
 ! R21   R(15,22)                1.0805         estimate D2E/DX2                !
 ! R22   R(16,17)                1.3834         estimate D2E/DX2                !
 ! R23   R(16,21)                1.08           estimate D2E/DX2                !
 ! R24   R(17,18)                1.3832         estimate D2E/DX2                !
 ! R25   R(17,20)                1.0805         estimate D2E/DX2                !
 ! R26   R(18,19)                1.0789         estimate D2E/DX2                !
 ! R27   R(24,25)                1.0926         estimate D2E/DX2                !
 ! R28   R(24,26)                1.0897         estimate D2E/DX2                !
 ! R29   R(24,27)                1.5297         estimate D2E/DX2                !
 ! R30   R(27,28)                1.0914         estimate D2E/DX2                !
 ! R31   R(27,29)                1.0915         estimate D2E/DX2                !
 ! R32   R(27,30)                1.5244         estimate D2E/DX2                !
 ! R33   R(30,31)                1.088          estimate D2E/DX2                !
 ! R34   R(30,32)                1.0885         estimate D2E/DX2                !
 ! R35   R(30,33)                1.0874         estimate D2E/DX2                !
 ! R36   R(34,35)                1.3942         estimate D2E/DX2                !
 ! R37   R(34,39)                1.388          estimate D2E/DX2                !
 ! R38   R(35,36)                1.3809         estimate D2E/DX2                !
 ! R39   R(35,44)                1.0799         estimate D2E/DX2                !
 ! R40   R(36,37)                1.385          estimate D2E/DX2                !
 ! R41   R(36,43)                1.0804         estimate D2E/DX2                !
 ! R42   R(37,38)                1.3817         estimate D2E/DX2                !
 ! R43   R(37,42)                1.08           estimate D2E/DX2                !
 ! R44   R(38,39)                1.3859         estimate D2E/DX2                !
 ! R45   R(38,41)                1.0807         estimate D2E/DX2                !
 ! R46   R(39,40)                1.0779         estimate D2E/DX2                !
 ! A1    A(2,1,13)             111.6377         estimate D2E/DX2                !
 ! A2    A(2,1,24)             105.8536         estimate D2E/DX2                !
 ! A3    A(2,1,34)             111.9868         estimate D2E/DX2                !
 ! A4    A(13,1,24)            110.1902         estimate D2E/DX2                !
 ! A5    A(13,1,34)            103.445          estimate D2E/DX2                !
 ! A6    A(24,1,34)            113.8655         estimate D2E/DX2                !
 ! A7    A(1,2,3)              122.3406         estimate D2E/DX2                !
 ! A8    A(1,2,7)              119.1838         estimate D2E/DX2                !
 ! A9    A(3,2,7)              118.3149         estimate D2E/DX2                !
 ! A10   A(2,3,4)              120.7543         estimate D2E/DX2                !
 ! A11   A(2,3,12)             120.0279         estimate D2E/DX2                !
 ! A12   A(4,3,12)             119.2172         estimate D2E/DX2                !
 ! A13   A(3,4,5)              120.398          estimate D2E/DX2                !
 ! A14   A(3,4,11)             119.5361         estimate D2E/DX2                !
 ! A15   A(5,4,11)             120.0654         estimate D2E/DX2                !
 ! A16   A(4,5,6)              119.3763         estimate D2E/DX2                !
 ! A17   A(4,5,10)             120.3462         estimate D2E/DX2                !
 ! A18   A(6,5,10)             120.2762         estimate D2E/DX2                !
 ! A19   A(5,6,7)              120.1597         estimate D2E/DX2                !
 ! A20   A(5,6,9)              120.1007         estimate D2E/DX2                !
 ! A21   A(7,6,9)              119.7394         estimate D2E/DX2                !
 ! A22   A(2,7,6)              120.9784         estimate D2E/DX2                !
 ! A23   A(2,7,8)              119.5917         estimate D2E/DX2                !
 ! A24   A(6,7,8)              119.4285         estimate D2E/DX2                !
 ! A25   A(1,13,14)            121.6032         estimate D2E/DX2                !
 ! A26   A(1,13,18)            120.3111         estimate D2E/DX2                !
 ! A27   A(14,13,18)           117.9274         estimate D2E/DX2                !
 ! A28   A(13,14,15)           121.0493         estimate D2E/DX2                !
 ! A29   A(13,14,23)           120.1014         estimate D2E/DX2                !
 ! A30   A(15,14,23)           118.8483         estimate D2E/DX2                !
 ! A31   A(14,15,16)           120.3717         estimate D2E/DX2                !
 ! A32   A(14,15,22)           119.5157         estimate D2E/DX2                !
 ! A33   A(16,15,22)           120.1124         estimate D2E/DX2                !
 ! A34   A(15,16,17)           119.1811         estimate D2E/DX2                !
 ! A35   A(15,16,21)           120.4156         estimate D2E/DX2                !
 ! A36   A(17,16,21)           120.401          estimate D2E/DX2                !
 ! A37   A(16,17,18)           120.3414         estimate D2E/DX2                !
 ! A38   A(16,17,20)           120.0742         estimate D2E/DX2                !
 ! A39   A(18,17,20)           119.5837         estimate D2E/DX2                !
 ! A40   A(13,18,17)           121.1002         estimate D2E/DX2                !
 ! A41   A(13,18,19)           120.2887         estimate D2E/DX2                !
 ! A42   A(17,18,19)           118.6084         estimate D2E/DX2                !
 ! A43   A(1,24,25)            107.9782         estimate D2E/DX2                !
 ! A44   A(1,24,26)            110.1798         estimate D2E/DX2                !
 ! A45   A(1,24,27)            113.9179         estimate D2E/DX2                !
 ! A46   A(25,24,26)           107.0112         estimate D2E/DX2                !
 ! A47   A(25,24,27)           108.7116         estimate D2E/DX2                !
 ! A48   A(26,24,27)           108.8059         estimate D2E/DX2                !
 ! A49   A(24,27,28)           109.6913         estimate D2E/DX2                !
 ! A50   A(24,27,29)           109.9705         estimate D2E/DX2                !
 ! A51   A(24,27,30)           111.0342         estimate D2E/DX2                !
 ! A52   A(28,27,29)           107.3639         estimate D2E/DX2                !
 ! A53   A(28,27,30)           109.161          estimate D2E/DX2                !
 ! A54   A(29,27,30)           109.5417         estimate D2E/DX2                !
 ! A55   A(27,30,31)           110.5033         estimate D2E/DX2                !
 ! A56   A(27,30,32)           110.8514         estimate D2E/DX2                !
 ! A57   A(27,30,33)           110.5447         estimate D2E/DX2                !
 ! A58   A(31,30,32)           108.2316         estimate D2E/DX2                !
 ! A59   A(31,30,33)           108.3573         estimate D2E/DX2                !
 ! A60   A(32,30,33)           108.2655         estimate D2E/DX2                !
 ! A61   A(1,34,35)            118.0204         estimate D2E/DX2                !
 ! A62   A(1,34,39)            123.9741         estimate D2E/DX2                !
 ! A63   A(35,34,39)           117.928          estimate D2E/DX2                !
 ! A64   A(34,35,36)           121.3106         estimate D2E/DX2                !
 ! A65   A(34,35,44)           119.3742         estimate D2E/DX2                !
 ! A66   A(36,35,44)           119.3151         estimate D2E/DX2                !
 ! A67   A(35,36,37)           120.1322         estimate D2E/DX2                !
 ! A68   A(35,36,43)           119.7354         estimate D2E/DX2                !
 ! A69   A(37,36,43)           120.1321         estimate D2E/DX2                !
 ! A70   A(36,37,38)           119.1879         estimate D2E/DX2                !
 ! A71   A(36,37,42)           120.4009         estimate D2E/DX2                !
 ! A72   A(38,37,42)           120.4107         estimate D2E/DX2                !
 ! A73   A(37,38,39)           120.5861         estimate D2E/DX2                !
 ! A74   A(37,38,41)           120.0263         estimate D2E/DX2                !
 ! A75   A(39,38,41)           119.3876         estimate D2E/DX2                !
 ! A76   A(34,39,38)           120.8476         estimate D2E/DX2                !
 ! A77   A(34,39,40)           121.0949         estimate D2E/DX2                !
 ! A78   A(38,39,40)           118.0575         estimate D2E/DX2                !
 ! D1    D(13,1,2,3)           134.2136         estimate D2E/DX2                !
 ! D2    D(13,1,2,7)           -50.4752         estimate D2E/DX2                !
 ! D3    D(24,1,2,3)          -105.8765         estimate D2E/DX2                !
 ! D4    D(24,1,2,7)            69.4347         estimate D2E/DX2                !
 ! D5    D(34,1,2,3)            18.7509         estimate D2E/DX2                !
 ! D6    D(34,1,2,7)          -165.9379         estimate D2E/DX2                !
 ! D7    D(2,1,13,14)          -22.7574         estimate D2E/DX2                !
 ! D8    D(2,1,13,18)          161.9119         estimate D2E/DX2                !
 ! D9    D(24,1,13,14)        -140.0805         estimate D2E/DX2                !
 ! D10   D(24,1,13,18)          44.5888         estimate D2E/DX2                !
 ! D11   D(34,1,13,14)          97.8371         estimate D2E/DX2                !
 ! D12   D(34,1,13,18)         -77.4936         estimate D2E/DX2                !
 ! D13   D(2,1,24,25)          -70.9624         estimate D2E/DX2                !
 ! D14   D(2,1,24,26)          172.4891         estimate D2E/DX2                !
 ! D15   D(2,1,24,27)           49.893          estimate D2E/DX2                !
 ! D16   D(13,1,24,25)          49.8909         estimate D2E/DX2                !
 ! D17   D(13,1,24,26)         -66.6575         estimate D2E/DX2                !
 ! D18   D(13,1,24,27)         170.7464         estimate D2E/DX2                !
 ! D19   D(34,1,24,25)         165.5865         estimate D2E/DX2                !
 ! D20   D(34,1,24,26)          49.038          estimate D2E/DX2                !
 ! D21   D(34,1,24,27)         -73.558          estimate D2E/DX2                !
 ! D22   D(2,1,34,35)           56.6088         estimate D2E/DX2                !
 ! D23   D(2,1,34,39)         -126.664          estimate D2E/DX2                !
 ! D24   D(13,1,34,35)         -63.7483         estimate D2E/DX2                !
 ! D25   D(13,1,34,39)         112.9789         estimate D2E/DX2                !
 ! D26   D(24,1,34,35)         176.6605         estimate D2E/DX2                !
 ! D27   D(24,1,34,39)          -6.6123         estimate D2E/DX2                !
 ! D28   D(1,2,3,4)            176.8041         estimate D2E/DX2                !
 ! D29   D(1,2,3,12)            -2.9097         estimate D2E/DX2                !
 ! D30   D(7,2,3,4)              1.4539         estimate D2E/DX2                !
 ! D31   D(7,2,3,12)          -178.2598         estimate D2E/DX2                !
 ! D32   D(1,2,7,6)           -176.9902         estimate D2E/DX2                !
 ! D33   D(1,2,7,8)              3.4437         estimate D2E/DX2                !
 ! D34   D(3,2,7,6)             -1.4897         estimate D2E/DX2                !
 ! D35   D(3,2,7,8)            178.9442         estimate D2E/DX2                !
 ! D36   D(2,3,4,5)             -0.4785         estimate D2E/DX2                !
 ! D37   D(2,3,4,11)           179.789          estimate D2E/DX2                !
 ! D38   D(12,3,4,5)           179.2376         estimate D2E/DX2                !
 ! D39   D(12,3,4,11)           -0.4949         estimate D2E/DX2                !
 ! D40   D(3,4,5,6)             -0.4988         estimate D2E/DX2                !
 ! D41   D(3,4,5,10)           179.9073         estimate D2E/DX2                !
 ! D42   D(11,4,5,6)           179.2322         estimate D2E/DX2                !
 ! D43   D(11,4,5,10)           -0.3616         estimate D2E/DX2                !
 ! D44   D(4,5,6,7)              0.4656         estimate D2E/DX2                !
 ! D45   D(4,5,6,9)           -179.3573         estimate D2E/DX2                !
 ! D46   D(10,5,6,7)          -179.9402         estimate D2E/DX2                !
 ! D47   D(10,5,6,9)             0.2369         estimate D2E/DX2                !
 ! D48   D(5,6,7,2)              0.5438         estimate D2E/DX2                !
 ! D49   D(5,6,7,8)           -179.8894         estimate D2E/DX2                !
 ! D50   D(9,6,7,2)           -179.6327         estimate D2E/DX2                !
 ! D51   D(9,6,7,8)             -0.0659         estimate D2E/DX2                !
 ! D52   D(1,13,14,15)        -177.2243         estimate D2E/DX2                !
 ! D53   D(1,13,14,23)           3.1362         estimate D2E/DX2                !
 ! D54   D(18,13,14,15)         -1.7864         estimate D2E/DX2                !
 ! D55   D(18,13,14,23)        178.5741         estimate D2E/DX2                !
 ! D56   D(1,13,18,17)         177.3675         estimate D2E/DX2                !
 ! D57   D(1,13,18,19)          -2.0212         estimate D2E/DX2                !
 ! D58   D(14,13,18,17)          1.8682         estimate D2E/DX2                !
 ! D59   D(14,13,18,19)       -177.5205         estimate D2E/DX2                !
 ! D60   D(13,14,15,16)          0.5368         estimate D2E/DX2                !
 ! D61   D(13,14,15,22)       -179.636          estimate D2E/DX2                !
 ! D62   D(23,14,15,16)       -179.8194         estimate D2E/DX2                !
 ! D63   D(23,14,15,22)          0.0078         estimate D2E/DX2                !
 ! D64   D(14,15,16,17)          0.6795         estimate D2E/DX2                !
 ! D65   D(14,15,16,21)       -179.8613         estimate D2E/DX2                !
 ! D66   D(22,15,16,17)       -179.1466         estimate D2E/DX2                !
 ! D67   D(22,15,16,21)          0.3126         estimate D2E/DX2                !
 ! D68   D(15,16,17,18)         -0.5992         estimate D2E/DX2                !
 ! D69   D(15,16,17,20)        179.0749         estimate D2E/DX2                !
 ! D70   D(21,16,17,18)        179.9415         estimate D2E/DX2                !
 ! D71   D(21,16,17,20)         -0.3844         estimate D2E/DX2                !
 ! D72   D(16,17,18,13)         -0.7            estimate D2E/DX2                !
 ! D73   D(16,17,18,19)        178.6987         estimate D2E/DX2                !
 ! D74   D(20,17,18,13)        179.6242         estimate D2E/DX2                !
 ! D75   D(20,17,18,19)         -0.977          estimate D2E/DX2                !
 ! D76   D(1,24,27,28)         -67.736          estimate D2E/DX2                !
 ! D77   D(1,24,27,29)          50.1234         estimate D2E/DX2                !
 ! D78   D(1,24,27,30)         171.5255         estimate D2E/DX2                !
 ! D79   D(25,24,27,28)         52.7091         estimate D2E/DX2                !
 ! D80   D(25,24,27,29)        170.5685         estimate D2E/DX2                !
 ! D81   D(25,24,27,30)        -68.0294         estimate D2E/DX2                !
 ! D82   D(26,24,27,28)        168.9182         estimate D2E/DX2                !
 ! D83   D(26,24,27,29)        -73.2224         estimate D2E/DX2                !
 ! D84   D(26,24,27,30)         48.1797         estimate D2E/DX2                !
 ! D85   D(24,27,30,31)         58.5247         estimate D2E/DX2                !
 ! D86   D(24,27,30,32)        -61.4661         estimate D2E/DX2                !
 ! D87   D(24,27,30,33)        178.4735         estimate D2E/DX2                !
 ! D88   D(28,27,30,31)        -62.5262         estimate D2E/DX2                !
 ! D89   D(28,27,30,32)        177.483          estimate D2E/DX2                !
 ! D90   D(28,27,30,33)         57.4225         estimate D2E/DX2                !
 ! D91   D(29,27,30,31)       -179.8221         estimate D2E/DX2                !
 ! D92   D(29,27,30,32)         60.1871         estimate D2E/DX2                !
 ! D93   D(29,27,30,33)        -59.8733         estimate D2E/DX2                !
 ! D94   D(1,34,35,36)         177.9145         estimate D2E/DX2                !
 ! D95   D(1,34,35,44)          -2.2083         estimate D2E/DX2                !
 ! D96   D(39,34,35,36)          0.9861         estimate D2E/DX2                !
 ! D97   D(39,34,35,44)       -179.1366         estimate D2E/DX2                !
 ! D98   D(1,34,39,38)        -177.6695         estimate D2E/DX2                !
 ! D99   D(1,34,39,40)           2.4354         estimate D2E/DX2                !
 ! D100  D(35,34,39,38)         -0.9395         estimate D2E/DX2                !
 ! D101  D(35,34,39,40)        179.1654         estimate D2E/DX2                !
 ! D102  D(34,35,36,37)         -0.4188         estimate D2E/DX2                !
 ! D103  D(34,35,36,43)        179.7635         estimate D2E/DX2                !
 ! D104  D(44,35,36,37)        179.7039         estimate D2E/DX2                !
 ! D105  D(44,35,36,43)         -0.1138         estimate D2E/DX2                !
 ! D106  D(35,36,37,38)         -0.2164         estimate D2E/DX2                !
 ! D107  D(35,36,37,42)       -179.9704         estimate D2E/DX2                !
 ! D108  D(43,36,37,38)        179.6006         estimate D2E/DX2                !
 ! D109  D(43,36,37,42)         -0.1534         estimate D2E/DX2                !
 ! D110  D(36,37,38,39)          0.2591         estimate D2E/DX2                !
 ! D111  D(36,37,38,41)       -179.6703         estimate D2E/DX2                !
 ! D112  D(42,37,38,39)       -179.9869         estimate D2E/DX2                !
 ! D113  D(42,37,38,41)          0.0838         estimate D2E/DX2                !
 ! D114  D(37,38,39,34)          0.3333         estimate D2E/DX2                !
 ! D115  D(37,38,39,40)       -179.7684         estimate D2E/DX2                !
 ! D116  D(41,38,39,34)       -179.7369         estimate D2E/DX2                !
 ! D117  D(41,38,39,40)          0.1614         estimate D2E/DX2                !
 --------------------------------------------------------------------------------
 Trust Radius=3.00D-01 FncErr=1.00D-07 GrdErr=1.00D-06 EigMax=2.50D+02 EigMin=1.00D-04
 Number of steps in this run=    251 maximum allowed number of steps=    264.
 GradGradGradGradGradGradGradGradGradGradGradGradGradGradGradGradGradGrad

                          Input orientation:                          
 ---------------------------------------------------------------------
 Center     Atomic      Atomic             Coordinates (Angstroms)
 Number     Number       Type             X           Y           Z
 ---------------------------------------------------------------------
      1          6           0       -0.056954   -0.006968    0.447518
      2          6           0       -1.344867    0.358489   -0.274268
      3          6           0       -1.998880   -0.526811   -1.120730
      4          6           0       -3.204256   -0.183675   -1.709931
      5          6           0       -3.782239    1.046703   -1.455708
      6          6           0       -3.149462    1.930142   -0.597286
      7          6           0       -1.946869    1.586060   -0.009470
      8          1           0       -1.464177    2.283831    0.660010
      9          1           0       -3.595813    2.890358   -0.382266
     10          1           0       -4.721611    1.314045   -1.916858
     11          1           0       -3.694510   -0.886385   -2.368089
     12          1           0       -1.570859   -1.497322   -1.322764
     13          6           0        0.982990    1.109110    0.344973
     14          6           0        0.941184    2.052758   -0.676002
     15          6           0        1.920267    3.023711   -0.790925
     16          6           0        2.971223    3.066779    0.107123
     17          6           0        3.038669    2.118845    1.112445
     18          6           0        2.059674    1.148191    1.224350
     19          1           0        2.151151    0.409892    2.005689
     20          1           0        3.861360    2.129925    1.812762
     21          1           0        3.734586    3.825661    0.019427
     22          1           0        1.860205    3.748261   -1.590233
     23          1           0        0.133061    2.040157   -1.392554
     24          6           0       -0.451197   -0.235223    1.925937
     25          1           0       -0.697078    0.735459    2.363124
     26          1           0        0.396844   -0.630774    2.484368
     27          6           0       -1.644837   -1.173609    2.111694
     28          1           0       -2.549284   -0.698688    1.727438
     29          1           0       -1.490525   -2.090698    1.540262
     30          6           0       -1.846710   -1.517472    3.583031
     31          1           0       -2.005278   -0.613470    4.167395
     32          1           0       -0.975846   -2.033378    3.983367
     33          1           0       -2.712829   -2.162860    3.708748
     34          6           0        0.639042   -1.200020   -0.196235
     35          6           0        0.968773   -1.114762   -1.548231
     36          6           0        1.638279   -2.138199   -2.189540
     37          6           0        2.004684   -3.275479   -1.489172
     38          6           0        1.695951   -3.368113   -0.145551
     39          6           0        1.023189   -2.340149    0.495960
     40          1           0        0.806477   -2.453548    1.545728
     41          1           0        1.980150   -4.247092    0.415269
     42          1           0        2.528832   -4.078306   -1.986282
     43          1           0        1.877717   -2.046930   -3.239072
     44          1           0        0.693628   -0.231877   -2.105914
 ---------------------------------------------------------------------
                    Distance matrix (angstroms):
                    1          2          3          4          5
     1  C    0.000000
     2  C    1.520938   0.000000
     3  C    2.549651   1.388521   0.000000
     4  C    3.819859   2.410892   1.384858   0.000000
     5  C    4.313959   2.794678   2.401776   1.382941   0.000000
     6  C    3.795737   2.414746   2.763051   2.389394   1.384832
     7  C    2.513633   1.392642   2.387850   2.757635   2.398144
     8  H    2.696885   2.143374   3.369964   3.838370   3.373450
     9  H    4.648286   3.389510   3.843510   3.371304   2.141517
    10  H    5.393920   3.874737   3.381691   2.142043   1.080069
    11  H    4.683250   3.384468   2.135499   1.080426   2.139384
    12  H    2.765315   2.143468   1.079774   2.131561   3.373417
    13  C    1.528930   2.523055   3.703522   4.840140   5.094483
    14  C    2.549715   2.873667   3.936488   4.822377   4.891913
    15  C    3.824677   4.246344   5.298556   6.114952   6.071991
    16  C    4.328238   5.109690   6.254874   7.211358   7.220278
    17  C    3.813672   4.923131   6.112567   7.227830   7.366797
    18  C    2.533371   3.802681   4.977639   6.171939   6.428138
    19  H    2.734483   4.174085   5.279647   6.545116   6.898690
    20  H    4.667267   5.882047   7.071495   8.227092   8.383369
    21  H    5.408149   6.156978   7.288114   8.198353   8.148699
    22  H    4.682913   4.847144   5.778340   6.412739   6.257291
    23  H    2.759111   2.502567   3.347893   4.022915   4.039866
    24  C    1.547013   2.447865   3.429654   4.560870   4.916778
    25  H    2.151860   2.741819   3.927500   4.870372   4.919204
    26  H    2.178032   3.409145   4.329784   5.546167   5.983550
    27  C    2.579129   2.851336   3.315458   4.244594   4.714301
    28  H    2.885893   2.564189   2.905950   3.536910   3.833926
    29  H    2.755203   3.051598   3.128105   4.139730   4.906228
    30  C    3.913604   4.318545   4.809359   5.624714   5.975799
    31  H    4.242794   4.594477   5.288839   6.013754   6.126423
    32  H    4.177670   4.897413   5.419239   6.387555   6.851736
    33  H    4.726222   4.908456   5.148810   5.789712   6.173860
    34  C    1.523877   2.524071   2.875158   4.253842   5.116812
    35  C    2.502466   3.024298   3.055390   4.278696   5.220403
    36  C    3.790783   4.335998   4.119205   5.244076   6.329623
    37  C    4.322532   5.089323   4.870262   6.061439   7.222940
    38  C    3.836887   4.811518   4.761906   6.049790   7.156653
    39  C    2.571535   3.672001   3.877471   5.233319   6.194507
    40  H    2.817327   3.980982   4.323464   5.642484   6.505129
    41  H    4.704199   5.722113   5.659723   6.921409   8.045493
    42  H    5.402358   6.133652   5.819147   6.936340   8.147199
    43  H    4.636307   4.996114   4.671845   5.624628   6.692239
    44  H    2.670949   2.803377   2.882217   3.918243   4.700099
                    6          7          8          9         10
     6  C    0.000000
     7  C    1.382082   0.000000
     8  H    2.132153   1.080778   0.000000
     9  H    1.080498   2.135225   2.449098   0.000000
    10  H    2.143011   3.378063   4.265162   2.471266   0.000000
    11  H    3.371297   3.838009   4.918744   4.268140   2.469906
    12  H    3.842631   3.372442   4.270819   4.923079   4.264266
    13  C    4.317303   2.989512   2.732736   4.966604   6.140061
    14  C    4.093240   3.000486   2.761174   4.623007   5.844028
    15  C    5.189946   4.199077   3.755941   5.532804   6.950195
    16  C    6.265056   5.137485   4.537782   6.587609   8.145445
    17  C    6.422754   5.137912   4.528526   6.844395   8.369368
    18  C    5.573590   4.215024   3.745088   6.131956   7.475327
    19  H    6.097798   4.715719   4.288718   6.699450   7.964843
    20  H    7.416190   6.111615   5.451043   7.810623   9.393780
    21  H    7.166829   6.107010   5.460286   7.400736   9.031316
    22  H    5.421094   4.654861   4.273133   5.653611   7.025125
    23  H    3.379277   2.538746   2.612195   3.955758   4.936595
    24  C    4.282067   3.049575   2.995720   4.998567   5.950104
    25  H    4.025603   2.813308   2.426210   4.536895   5.903378
    26  H    5.350810   4.077569   3.909809   6.046260   7.025075
    27  C    4.385857   3.493756   3.754187   5.151889   5.646609
    28  H    3.560239   2.932546   3.348474   4.292705   4.695848
    29  H    4.846477   4.016026   4.462291   5.739274   5.829568
    30  C    5.572994   4.748475   4.810436   6.181578   6.821388
    31  H    5.520988   4.720969   4.581364   5.958693   6.936275
    32  H    6.435564   5.475944   5.470052   7.082806   7.749106
    33  H    5.956950   5.335377   5.534167   6.561331   6.911695
    34  C    4.930671   3.805792   4.158594   5.890653   6.165846
    35  C    5.209184   4.261829   4.727156   6.183518   6.198020
    36  C    6.481445   5.610355   6.107333   7.479862   7.241584
    37  C    7.379646   6.437301   6.896224   8.402877   8.154121
    38  C    7.193998   6.150811   6.525321   8.199223   8.139117
    39  C    6.069728   4.948921   5.253104   7.033112   7.223403
    40  H    6.281617   5.130106   5.327582   7.187117   7.532862
    41  H    8.092985   7.044681   7.387574   9.092338   9.015467
    42  H    8.382946   7.484966   7.963904   9.415222   9.036104
    43  H    6.933157   6.185175   6.717633   7.905547   7.523000
    44  H    4.660432   3.830430   4.316856   5.578406   5.634752
                   11         12         13         14         15
    11  H    0.000000
    12  H    2.444553   0.000000
    13  C    5.763828   4.012104   0.000000
    14  C    5.743812   4.396786   1.390902   0.000000
    15  C    7.021539   5.736772   2.415460   1.383676   0.000000
    16  C    8.135489   6.595916   2.800377   2.400538   1.383060
    17  C    8.153602   6.344656   2.415450   2.757237   2.385880
    18  C    7.082072   5.164039   1.390712   2.383401   2.756509
    19  H    7.414987   5.345038   2.147437   3.369644   3.834893
    20  H    9.147066   7.245513   3.388434   3.837620   3.368365
    21  H    9.115650   7.634355   3.880323   3.380814   2.142790
    22  H    7.275979   6.273746   3.388163   2.134280   1.080497
    23  H    4.915955   3.927082   2.146679   1.080124   2.126838
    24  C    5.420494   3.660683   2.522612   3.734122   4.860641
    25  H    5.830896   4.397110   2.652391   3.695330   4.694104
    26  H    6.352232   4.372301   2.819180   4.181577   5.138445
    27  C    4.934786   3.450474   3.903534   4.986802   6.225163
    28  H    4.256772   3.301343   4.201940   5.052756   6.338398
    29  H    4.645764   2.924973   4.217316   5.290865   6.574580
    30  C    6.263264   4.913587   5.038964   6.217576   7.344654
    31  H    6.755778   5.577792   5.148586   6.264894   7.295473
    32  H    7.003408   5.366230   5.191356   6.487005   7.533623
    33  H    6.286576   5.202226   5.973261   7.095723   8.283306
    34  C    4.857468   2.498224   2.396515   3.301822   4.453660
    35  C    4.740309   2.578162   2.920621   3.285533   4.313445
    36  C    5.480653   3.385349   4.171111   4.510084   5.355460
    37  C    6.241882   3.996754   4.861333   5.493850   6.338333
    38  C    6.336854   3.944330   4.560093   5.498808   6.428237
    39  C    5.707266   3.278292   3.452796   4.547291   5.588543
    40  H    6.167078   3.846342   3.763708   5.026035   6.058122
    41  H    7.158435   4.815772   5.448685   6.477533   7.370418
    42  H    7.004579   4.889703   5.893527   6.467411   7.227577
    43  H    5.758055   3.983338   4.858652   4.924821   5.630864
    44  H    4.444421   2.709719   2.808704   2.706564   3.719232
                   16         17         18         19         20
    16  C    0.000000
    17  C    1.383402   0.000000
    18  C    2.400021   1.383158   0.000000
    19  H    3.366916   2.122756   1.078862   0.000000
    20  H    2.139916   1.080456   2.134503   2.433218   0.000000
    21  H    1.079960   2.142944   3.380239   4.256757   2.471364
    22  H    2.140046   3.368716   3.836930   4.915284   4.266615
    23  H    3.370186   3.837157   3.369812   4.275338   4.917553
    24  C    5.091587   4.287490   2.951360   2.682303   4.919845
    25  H    4.897043   4.175376   3.011118   2.888973   4.798624
    26  H    5.094175   4.052385   2.741781   2.095165   4.480557
    27  C    6.580821   5.811538   4.461113   4.114394   6.428133
    28  H    6.876057   6.288237   4.990646   4.837403   7.007474
    29  H    6.968547   6.198135   4.816026   4.442001   6.821333
    30  C    7.503984   6.572178   5.284786   4.710163   7.001387
    31  H    7.402406   6.499205   5.318721   4.795430   6.891151
    32  H    7.524376   6.449766   5.191236   4.433835   6.741156
    33  H    8.522282   7.625846   6.317600   5.760015   8.077297
    34  C    4.872029   4.299502   3.090363   3.118775   5.050538
    35  C    4.922935   4.671176   3.741420   4.043877   5.494664
    36  C    5.843218   5.566562   4.757370   4.935154   6.259184
    37  C    6.611096   6.077521   5.189901   5.081088   6.600636
    38  C    6.564906   5.787240   4.733489   4.371311   6.225143
    39  C    5.760287   4.932022   3.711249   3.333813   5.456258
    40  H    6.101616   5.106583   3.827049   3.196717   5.514693
    41  H    7.387144   6.490891   5.456190   4.924041   6.793989
    42  H    7.458572   6.947426   6.151791   6.018505   7.399358
    43  H    6.208285   6.134916   5.492180   5.798125   6.848502
    44  H    4.578876   4.624170   3.855039   4.409254   5.564948
                   21         22         23         24         25
    21  H    0.000000
    22  H    2.471902   0.000000
    23  H    4.260598   2.437155   0.000000
    24  C    6.135661   5.794323   4.065845   0.000000
    25  H    5.889135   5.589785   4.061586   1.092618   0.000000
    26  H    6.089029   6.157901   4.715292   1.089714   1.754411
    27  C    7.635998   7.086211   5.076314   1.529657   2.146160
    28  H    7.929316   7.087022   4.942731   2.157816   2.427250
    29  H    8.038533   7.424340   5.319906   2.161419   3.048577
    30  C    8.508772   8.260256   6.429049   2.517455   2.808118
    31  H    8.358084   8.192493   6.521293   2.753611   2.605071
    32  H    8.498784   8.516781   6.835488   2.782379   3.220149
    33  H    9.541627   9.161506   7.196369   3.465427   3.778123
    34  C    5.906468   5.283933   3.490837   2.573531   3.475861
    35  C    5.874951   4.944229   3.267440   3.854834   4.636494
    36  C    6.696391   5.921050   4.512153   4.992431   5.868436
    37  C    7.462882   7.025952   5.636337   5.190132   6.182825
    38  C    7.478879   7.263392   5.766024   4.326234   5.372089
    39  C    6.752479   6.490111   4.852412   2.940980   3.988106
    40  H    7.094496   7.029013   5.411135   2.578229   3.619196
    41  H    8.270676   8.243913   6.797754   4.928352   5.982266
    42  H    8.243143   7.865054   6.597562   6.241419   7.245423
    43  H    6.968006   6.025215   4.812249   5.948398   6.764307
    44  H    5.498009   4.179513   2.446479   4.191235   4.779341
                   26         27         28         29         30
    26  H    0.000000
    27  C    2.145231   0.000000
    28  H    3.042568   1.091434   0.000000
    29  H    2.566101   1.091513   1.758891   0.000000
    30  C    2.650816   1.524411   2.146450   2.151363   0.000000
    31  H    2.933099   2.160921   2.501319   3.057614   1.088046
    32  H    2.469529   2.165620   3.057175   2.497387   1.088499
    33  H    3.676474   2.160974   2.469036   2.490295   1.087425
    34  C    2.751060   3.247050   3.757296   2.888560   4.534599
    35  C    4.101610   4.497719   4.824919   4.066864   5.866769
    36  C    5.065462   5.496353   5.911902   4.868582   6.771486
    37  C    5.036728   5.541038   6.142072   4.774689   6.606895
    38  C    4.012129   4.590411   5.353124   3.824576   5.466045
    39  C    2.695930   3.330132   4.119890   2.733413   4.294546
    40  H    2.090777   2.822677   3.791264   2.325491   3.473650
    41  H    4.457105   5.046255   5.901587   4.238069   5.668368
    42  H    6.034697   6.530711   7.141484   5.704588   7.531300
    43  H    6.079165   6.465429   6.788395   5.847136   7.790557
    44  H    4.617129   4.913603   5.042715   4.639001   6.361617
                   31         32         33         34         35
    31  H    0.000000
    32  H    1.763444   0.000000
    33  H    1.763972   1.763318   0.000000
    34  C    5.135926   4.557567   5.235551   0.000000
    35  C    6.462558   5.934979   6.502964   1.394233   0.000000
    36  C    7.484045   6.704432   7.329567   2.419074   1.380919
    37  C    7.427169   6.354137   7.107125   2.800749   2.396935
    38  C    6.315747   5.095879   5.978763   2.412520   2.752071
    39  C    5.062852   4.031409   4.930646   1.388019   2.383958
    40  H    4.262041   3.048820   4.141096   2.152627   3.375096
    41  H    6.570030   5.135150   6.100416   3.384842   3.832716
    42  H    8.392317   7.218117   7.973538   3.880736   3.377613
    43  H    8.484587   7.765734   8.328191   3.392703   2.134024
    44  H    6.839891   6.565964   7.010203   2.141764   1.079907
                   36         37         38         39         40
    36  C    0.000000
    37  C    1.384982   0.000000
    38  C    2.386190   1.381743   0.000000
    39  C    2.762431   2.403939   1.385949   0.000000
    40  H    3.839735   3.364801   2.118494   1.077885   0.000000
    41  H    3.368877   2.138113   1.080691   2.135115   2.423271
    42  H    2.144391   1.079991   2.141578   3.383737   4.252228
    43  H    1.080360   2.141869   3.368744   3.842741   4.920082
    44  H    2.129183   3.370868   3.831925   3.364991   4.275867
                   41         42         43         44
    41  H    0.000000
    42  H    2.469208   0.000000
    43  H    4.266780   2.473847   0.000000
    44  H    4.912581   4.263484   2.445512   0.000000
 Symmetry turned off by external request.
 Stoichiometry    C22H22
 Framework group  C1[X(C22H22)]
 Deg. of freedom   126
 Full point group                 C1      NOp   1
 Rotational constants (GHZ):           0.3083288           0.2777090           0.2255248
 Standard basis: 6-311++G(3df,3pd) (5D, 7F)
  1254 basis functions,  1738 primitive gaussians,  1408 cartesian basis functions
    77 alpha electrons       77 beta electrons
       nuclear repulsion energy      1749.5480450950 Hartrees.
 NAtoms=   44 NActive=   44 NUniq=   44 SFac= 1.00D+00 NAtFMM=   60 NAOKFM=F Big=F
 Integral buffers will be    131072 words long.
 Raffenetti 2 integral format.
 Two-electron integral symmetry is turned off.
 One-electron integrals computed using PRISM.
 NBasis=  1254 RedAO= T EigKep=  1.23D-06  NBF=  1254
 NBsUse=  1241 1.00D-06 EigRej=  5.74D-07 NBFU=  1241
 ExpMin= 3.60D-02 ExpMax= 4.56D+03 ExpMxC= 6.82D+02 IAcc=3 IRadAn=         5 AccDes= 0.00D+00
 Harris functional with IExCor=  402 and IRadAn=       5 diagonalized for initial guess.
 HarFok:  IExCor=  402 AccDes= 0.00D+00 IRadAn=         5 IDoV= 1 UseB2=F ITyADJ=14
 ICtDFT=  3500011 ScaDFX=  1.000000  1.000000  1.000000  1.000000
 FoFCou: FMM=F IPFlag=           0 FMFlag=      100000 FMFlg1=           0
         NFxFlg=           0 DoJE=T BraDBF=F KetDBF=T FulRan=T
         wScrn=  0.000000 ICntrl=       500 IOpCl=  0 I1Cent=   200000004 NGrid=           0
         NMat0=    1 NMatS0=      1 NMatT0=    0 NMatD0=    1 NMtDS0=    0 NMtDT0=    0
 Symmetry not used in FoFCou.
 Requested convergence on RMS density matrix=1.00D-08 within 128 cycles.
 Requested convergence on MAX density matrix=1.00D-06.
 Requested convergence on             energy=1.00D-06.
 No special actions if energy rises.
 SCF Done:  E(RB3LYP) =  -851.860681857     A.U. after   14 cycles
            NFock= 14  Conv=0.29D-08     -V/T= 2.0044

 **********************************************************************

            Population analysis using the SCF density.

 **********************************************************************

 Alpha  occ. eigenvalues --  -10.19870 -10.18230 -10.18133 -10.18048 -10.17324
 Alpha  occ. eigenvalues --  -10.17251 -10.17234 -10.17176 -10.17163 -10.17148
 Alpha  occ. eigenvalues --  -10.17110 -10.17066 -10.17059 -10.17045 -10.16946
 Alpha  occ. eigenvalues --  -10.16926 -10.16911 -10.16879 -10.16863 -10.16742
 Alpha  occ. eigenvalues --  -10.16098 -10.15592  -0.88860  -0.86039  -0.85870
 Alpha  occ. eigenvalues --   -0.82232  -0.77906  -0.75573  -0.75367  -0.74958
 Alpha  occ. eigenvalues --   -0.74583  -0.74267  -0.70608  -0.65636  -0.61912
 Alpha  occ. eigenvalues --   -0.61688  -0.60629  -0.60035  -0.59561  -0.58746
 Alpha  occ. eigenvalues --   -0.56044  -0.53062  -0.52275  -0.50878  -0.47640
 Alpha  occ. eigenvalues --   -0.46887  -0.46549  -0.46116  -0.45216  -0.44785
 Alpha  occ. eigenvalues --   -0.44693  -0.43597  -0.42788  -0.42543  -0.42333
 Alpha  occ. eigenvalues --   -0.41857  -0.41295  -0.39570  -0.38307  -0.37495
 Alpha  occ. eigenvalues --   -0.37126  -0.36856  -0.36561  -0.35501  -0.35239
 Alpha  occ. eigenvalues --   -0.34920  -0.34317  -0.34017  -0.32988  -0.32273
 Alpha  occ. eigenvalues --   -0.31877  -0.26826  -0.26249  -0.26119  -0.25346
 Alpha  occ. eigenvalues --   -0.24658  -0.23632
 Alpha virt. eigenvalues --   -0.02762  -0.02235  -0.01986  -0.01356  -0.01134
 Alpha virt. eigenvalues --   -0.00171  -0.00108   0.00022   0.00128   0.00353
 Alpha virt. eigenvalues --    0.01300   0.01458   0.01756   0.02110   0.02622
 Alpha virt. eigenvalues --    0.03123   0.03512   0.03838   0.04217   0.04708
 Alpha virt. eigenvalues --    0.04880   0.05094   0.05825   0.06103   0.06560
 Alpha virt. eigenvalues --    0.06817   0.07353   0.08075   0.08284   0.08350
 Alpha virt. eigenvalues --    0.08790   0.08941   0.09669   0.09785   0.10149
 Alpha virt. eigenvalues --    0.10297   0.10726   0.10807   0.10913   0.11266
 Alpha virt. eigenvalues --    0.11337   0.11482   0.11700   0.11846   0.11957
 Alpha virt. eigenvalues --    0.12114   0.12179   0.12364   0.12546   0.12842
 Alpha virt. eigenvalues --    0.13034   0.13129   0.13416   0.13467   0.13668
 Alpha virt. eigenvalues --    0.13837   0.14262   0.14379   0.14790   0.15012
 Alpha virt. eigenvalues --    0.15204   0.15618   0.15913   0.16282   0.16332
 Alpha virt. eigenvalues --    0.16455   0.16968   0.17138   0.17281   0.17488
 Alpha virt. eigenvalues --    0.17994   0.18126   0.18231   0.18622   0.18844
 Alpha virt. eigenvalues --    0.19277   0.19396   0.19582   0.19772   0.20302
 Alpha virt. eigenvalues --    0.20476   0.20724   0.20982   0.21141   0.21389
 Alpha virt. eigenvalues --    0.21610   0.21723   0.22330   0.22694   0.22859
 Alpha virt. eigenvalues --    0.23489   0.23746   0.23791   0.23922   0.24217
 Alpha virt. eigenvalues --    0.24846   0.24937   0.25213   0.25513   0.25621
 Alpha virt. eigenvalues --    0.25963   0.26177   0.26407   0.26631   0.27125
 Alpha virt. eigenvalues --    0.27306   0.27610   0.27777   0.28044   0.28269
 Alpha virt. eigenvalues --    0.28544   0.28669   0.28816   0.29012   0.29250
 Alpha virt. eigenvalues --    0.29420   0.29628   0.29706   0.29944   0.30333
 Alpha virt. eigenvalues --    0.30571   0.30897   0.30984   0.31152   0.31474
 Alpha virt. eigenvalues --    0.31993   0.32243   0.32419   0.32870   0.33155
 Alpha virt. eigenvalues --    0.33740   0.33807   0.34288   0.34665   0.34862
 Alpha virt. eigenvalues --    0.35120   0.35356   0.35584   0.36069   0.36489
 Alpha virt. eigenvalues --    0.36791   0.36862   0.37305   0.37515   0.37805
 Alpha virt. eigenvalues --    0.37904   0.38080   0.38999   0.39072   0.39716
 Alpha virt. eigenvalues --    0.40069   0.40286   0.40801   0.41121   0.41235
 Alpha virt. eigenvalues --    0.41949   0.42662   0.43019   0.43285   0.43897
 Alpha virt. eigenvalues --    0.44013   0.44423   0.44799   0.45017   0.45444
 Alpha virt. eigenvalues --    0.45590   0.45703   0.46505   0.46562   0.46893
 Alpha virt. eigenvalues --    0.47292   0.47822   0.48082   0.48552   0.48779
 Alpha virt. eigenvalues --    0.48892   0.49365   0.49605   0.49975   0.50386
 Alpha virt. eigenvalues --    0.50827   0.50947   0.51401   0.51597   0.52065
 Alpha virt. eigenvalues --    0.52086   0.52659   0.53351   0.53468   0.53747
 Alpha virt. eigenvalues --    0.53975   0.54148   0.54673   0.55035   0.55423
 Alpha virt. eigenvalues --    0.55902   0.56521   0.56605   0.56787   0.56959
 Alpha virt. eigenvalues --    0.57547   0.57876   0.58052   0.58350   0.58543
 Alpha virt. eigenvalues --    0.58911   0.59116   0.59555   0.60025   0.60186
 Alpha virt. eigenvalues --    0.60411   0.60967   0.61235   0.61428   0.61648
 Alpha virt. eigenvalues --    0.61825   0.62129   0.62557   0.62664   0.63095
 Alpha virt. eigenvalues --    0.63619   0.63904   0.64213   0.64691   0.64891
 Alpha virt. eigenvalues --    0.65092   0.65719   0.65815   0.66135   0.66501
 Alpha virt. eigenvalues --    0.66694   0.66830   0.67025   0.67357   0.67597
 Alpha virt. eigenvalues --    0.68032   0.68272   0.68479   0.69045   0.69153
 Alpha virt. eigenvalues --    0.69543   0.69995   0.70353   0.70692   0.70890
 Alpha virt. eigenvalues --    0.71249   0.71486   0.71670   0.71783   0.72084
 Alpha virt. eigenvalues --    0.72441   0.72897   0.73079   0.73512   0.73595
 Alpha virt. eigenvalues --    0.74099   0.74387   0.74653   0.74869   0.74911
 Alpha virt. eigenvalues --    0.75601   0.76048   0.76283   0.76524   0.76953
 Alpha virt. eigenvalues --    0.77317   0.77589   0.77708   0.78544   0.78682
 Alpha virt. eigenvalues --    0.79047   0.79815   0.80186   0.80542   0.80841
 Alpha virt. eigenvalues --    0.81806   0.81900   0.82105   0.82461   0.82695
 Alpha virt. eigenvalues --    0.83540   0.83785   0.83939   0.84997   0.85132
 Alpha virt. eigenvalues --    0.85267   0.86071   0.86530   0.86660   0.87009
 Alpha virt. eigenvalues --    0.87123   0.87659   0.88004   0.88665   0.88943
 Alpha virt. eigenvalues --    0.89401   0.89958   0.90181   0.90611   0.90848
 Alpha virt. eigenvalues --    0.91732   0.91988   0.92500   0.92623   0.93604
 Alpha virt. eigenvalues --    0.93740   0.94288   0.94597   0.94870   0.95093
 Alpha virt. eigenvalues --    0.95536   0.96353   0.96671   0.96845   0.97236
 Alpha virt. eigenvalues --    0.97305   0.97459   0.98155   0.98416   0.98690
 Alpha virt. eigenvalues --    0.98902   0.99199   0.99729   1.00155   1.00254
 Alpha virt. eigenvalues --    1.00758   1.01224   1.01989   1.02414   1.02778
 Alpha virt. eigenvalues --    1.03321   1.03458   1.04062   1.04426   1.05295
 Alpha virt. eigenvalues --    1.05551   1.05943   1.06577   1.06983   1.07826
 Alpha virt. eigenvalues --    1.08056   1.08494   1.09222   1.09252   1.09992
 Alpha virt. eigenvalues --    1.10833   1.10967   1.11442   1.11843   1.12476
 Alpha virt. eigenvalues --    1.12806   1.13637   1.14351   1.14534   1.15817
 Alpha virt. eigenvalues --    1.16595   1.17001   1.17037   1.17798   1.18512
 Alpha virt. eigenvalues --    1.19265   1.20238   1.20803   1.21351   1.21590
 Alpha virt. eigenvalues --    1.21968   1.23097   1.23768   1.24226   1.25494
 Alpha virt. eigenvalues --    1.26147   1.26242   1.26805   1.27302   1.27844
 Alpha virt. eigenvalues --    1.28071   1.28759   1.29062   1.29878   1.30270
 Alpha virt. eigenvalues --    1.30936   1.31213   1.32000   1.32675   1.33312
 Alpha virt. eigenvalues --    1.34300   1.34484   1.34676   1.35344   1.36023
 Alpha virt. eigenvalues --    1.36542   1.36703   1.37007   1.37219   1.37988
 Alpha virt. eigenvalues --    1.38288   1.39011   1.39513   1.39618   1.40246
 Alpha virt. eigenvalues --    1.40561   1.41432   1.41579   1.42786   1.43613
 Alpha virt. eigenvalues --    1.44016   1.44291   1.45479   1.45693   1.46204
 Alpha virt. eigenvalues --    1.46548   1.47406   1.47729   1.48098   1.48374
 Alpha virt. eigenvalues --    1.48842   1.49673   1.49882   1.50596   1.51076
 Alpha virt. eigenvalues --    1.51350   1.52426   1.52576   1.53670   1.54175
 Alpha virt. eigenvalues --    1.54562   1.55015   1.55732   1.56631   1.57277
 Alpha virt. eigenvalues --    1.57664   1.58115   1.58703   1.58902   1.59702
 Alpha virt. eigenvalues --    1.59807   1.60937   1.61066   1.61757   1.62161
 Alpha virt. eigenvalues --    1.62582   1.63329   1.64158   1.64441   1.65121
 Alpha virt. eigenvalues --    1.65863   1.66625   1.67500   1.67948   1.68507
 Alpha virt. eigenvalues --    1.69031   1.70458   1.71256   1.72022   1.72145
 Alpha virt. eigenvalues --    1.73000   1.73459   1.74131   1.74278   1.74703
 Alpha virt. eigenvalues --    1.75610   1.76014   1.76348   1.77523   1.77764
 Alpha virt. eigenvalues --    1.78306   1.78909   1.79700   1.80264   1.80733
 Alpha virt. eigenvalues --    1.80978   1.82112   1.82712   1.83737   1.84647
 Alpha virt. eigenvalues --    1.85624   1.86155   1.86880   1.87553   1.88976
 Alpha virt. eigenvalues --    1.89827   1.90423   1.91040   1.91060   1.91682
 Alpha virt. eigenvalues --    1.92876   1.92991   1.94526   1.94848   1.95477
 Alpha virt. eigenvalues --    1.96264   1.96817   1.97423   1.98884   1.99522
 Alpha virt. eigenvalues --    2.00230   2.00447   2.00870   2.01458   2.02138
 Alpha virt. eigenvalues --    2.02346   2.02797   2.03896   2.04193   2.04537
 Alpha virt. eigenvalues --    2.04976   2.05331   2.05944   2.06515   2.06726
 Alpha virt. eigenvalues --    2.07000   2.07273   2.07849   2.08180   2.08541
 Alpha virt. eigenvalues --    2.09717   2.10466   2.10522   2.10881   2.11478
 Alpha virt. eigenvalues --    2.12330   2.13281   2.13656   2.13990   2.15126
 Alpha virt. eigenvalues --    2.15986   2.16888   2.18630   2.18909   2.19556
 Alpha virt. eigenvalues --    2.20188   2.21100   2.22571   2.23262   2.23914
 Alpha virt. eigenvalues --    2.25251   2.26445   2.26792   2.27519   2.29186
 Alpha virt. eigenvalues --    2.29837   2.30330   2.31410   2.31822   2.32941
 Alpha virt. eigenvalues --    2.33114   2.33858   2.34716   2.34992   2.35509
 Alpha virt. eigenvalues --    2.36990   2.37999   2.38761   2.39251   2.39595
 Alpha virt. eigenvalues --    2.41233   2.42481   2.42695   2.43430   2.44245
 Alpha virt. eigenvalues --    2.45813   2.46042   2.46835   2.47810   2.48084
 Alpha virt. eigenvalues --    2.48861   2.50129   2.50467   2.51542   2.52145
 Alpha virt. eigenvalues --    2.53425   2.54639   2.55940   2.56576   2.57740
 Alpha virt. eigenvalues --    2.58187   2.58328   2.59062   2.59574   2.60111
 Alpha virt. eigenvalues --    2.60754   2.61707   2.62065   2.63561   2.64646
 Alpha virt. eigenvalues --    2.65258   2.65841   2.66120   2.66885   2.68121
 Alpha virt. eigenvalues --    2.69470   2.70889   2.71238   2.72477   2.73414
 Alpha virt. eigenvalues --    2.74393   2.74656   2.75254   2.75635   2.76300
 Alpha virt. eigenvalues --    2.76542   2.77569   2.78398   2.79381   2.79781
 Alpha virt. eigenvalues --    2.80160   2.80854   2.81870   2.82450   2.83181
 Alpha virt. eigenvalues --    2.83558   2.84060   2.84672   2.84929   2.85293
 Alpha virt. eigenvalues --    2.85710   2.85916   2.86072   2.86940   2.88257
 Alpha virt. eigenvalues --    2.88956   2.89248   2.89704   2.90034   2.90146
 Alpha virt. eigenvalues --    2.91061   2.92132   2.92303   2.92765   2.93082
 Alpha virt. eigenvalues --    2.93497   2.94064   2.94714   2.95241   2.95779
 Alpha virt. eigenvalues --    2.96408   2.96742   2.97805   2.97939   2.98396
 Alpha virt. eigenvalues --    2.99124   2.99607   3.00077   3.00725   3.01418
 Alpha virt. eigenvalues --    3.01677   3.03013   3.03557   3.03782   3.04411
 Alpha virt. eigenvalues --    3.04439   3.04739   3.06135   3.06356   3.06934
 Alpha virt. eigenvalues --    3.07668   3.08180   3.08286   3.08934   3.09171
 Alpha virt. eigenvalues --    3.09671   3.10425   3.10884   3.11167   3.11471
 Alpha virt. eigenvalues --    3.12099   3.12349   3.12467   3.13071   3.13611
 Alpha virt. eigenvalues --    3.13711   3.14407   3.14947   3.15519   3.15957
 Alpha virt. eigenvalues --    3.16204   3.16572   3.16707   3.17288   3.17591
 Alpha virt. eigenvalues --    3.18216   3.19378   3.20345   3.20819   3.21330
 Alpha virt. eigenvalues --    3.21357   3.21943   3.22734   3.23933   3.24184
 Alpha virt. eigenvalues --    3.24787   3.24865   3.26050   3.27256   3.27802
 Alpha virt. eigenvalues --    3.27954   3.28935   3.29875   3.30473   3.31617
 Alpha virt. eigenvalues --    3.32141   3.32428   3.32914   3.33534   3.34287
 Alpha virt. eigenvalues --    3.35362   3.36135   3.36435   3.37501   3.37776
 Alpha virt. eigenvalues --    3.38971   3.39691   3.40255   3.41125   3.41978
 Alpha virt. eigenvalues --    3.42259   3.42604   3.43187   3.44009   3.44054
 Alpha virt. eigenvalues --    3.44577   3.45276   3.46502   3.47198   3.47837
 Alpha virt. eigenvalues --    3.48429   3.49803   3.50103   3.51130   3.51611
 Alpha virt. eigenvalues --    3.53443   3.54395   3.54700   3.55551   3.56170
 Alpha virt. eigenvalues --    3.57141   3.57686   3.57896   3.58462   3.58656
 Alpha virt. eigenvalues --    3.59685   3.60356   3.61358   3.62276   3.62539
 Alpha virt. eigenvalues --    3.63400   3.64332   3.64927   3.65502   3.66376
 Alpha virt. eigenvalues --    3.67526   3.67772   3.68632   3.69086   3.69633
 Alpha virt. eigenvalues --    3.70315   3.70738   3.71570   3.71829   3.73181
 Alpha virt. eigenvalues --    3.73748   3.73950   3.74826   3.75624   3.75950
 Alpha virt. eigenvalues --    3.76500   3.77622   3.77863   3.78813   3.80156
 Alpha virt. eigenvalues --    3.81254   3.82040   3.82452   3.82861   3.83465
 Alpha virt. eigenvalues --    3.83536   3.84877   3.85098   3.85765   3.86062
 Alpha virt. eigenvalues --    3.87673   3.88403   3.88538   3.88836   3.89275
 Alpha virt. eigenvalues --    3.90324   3.90450   3.90918   3.91867   3.92267
 Alpha virt. eigenvalues --    3.92481   3.93300   3.93371   3.93885   3.94975
 Alpha virt. eigenvalues --    3.95091   3.95587   3.96898   3.97586   3.98991
 Alpha virt. eigenvalues --    4.00318   4.00912   4.01494   4.02299   4.02812
 Alpha virt. eigenvalues --    4.05014   4.05700   4.07030   4.08103   4.08680
 Alpha virt. eigenvalues --    4.10339   4.11042   4.12692   4.13159   4.14245
 Alpha virt. eigenvalues --    4.16335   4.17497   4.18871   4.20203   4.21467
 Alpha virt. eigenvalues --    4.23026   4.23757   4.24305   4.25604   4.26038
 Alpha virt. eigenvalues --    4.26316   4.28036   4.30301   4.30961   4.32248
 Alpha virt. eigenvalues --    4.33151   4.34541   4.35549   4.37177   4.37894
 Alpha virt. eigenvalues --    4.38862   4.39256   4.39894   4.40132   4.41167
 Alpha virt. eigenvalues --    4.42286   4.42525   4.43665   4.44283   4.44948
 Alpha virt. eigenvalues --    4.45383   4.46108   4.46391   4.47032   4.47255
 Alpha virt. eigenvalues --    4.47689   4.48940   4.49601   4.49856   4.50470
 Alpha virt. eigenvalues --    4.50784   4.51743   4.52814   4.53240   4.55630
 Alpha virt. eigenvalues --    4.55985   4.56851   4.57257   4.57435   4.58841
 Alpha virt. eigenvalues --    4.60184   4.60407   4.61101   4.61216   4.61897
 Alpha virt. eigenvalues --    4.62619   4.62931   4.64061   4.65822   4.66074
 Alpha virt. eigenvalues --    4.66517   4.67225   4.67966   4.68287   4.70575
 Alpha virt. eigenvalues --    4.70975   4.72298   4.74245   4.76152   4.76676
 Alpha virt. eigenvalues --    4.77909   4.78654   4.79612   4.80536   4.80753
 Alpha virt. eigenvalues --    4.81181   4.82386   4.82858   4.83421   4.84517
 Alpha virt. eigenvalues --    4.85378   4.86387   4.87689   4.88176   4.88685
 Alpha virt. eigenvalues --    4.89013   4.89882   4.90213   4.90752   4.91258
 Alpha virt. eigenvalues --    4.91742   4.93129   4.93566   4.95431   4.96171
 Alpha virt. eigenvalues --    4.99060   5.01321   5.02393   5.05596   5.06408
 Alpha virt. eigenvalues --    5.08009   5.09151   5.11171   5.12539   5.14635
 Alpha virt. eigenvalues --    5.17630   5.18642   5.20270   5.21267   5.23329
 Alpha virt. eigenvalues --    5.26799   5.27457   5.28904   5.29468   5.31873
 Alpha virt. eigenvalues --    5.32432   5.32872   5.40392   5.44433   5.48204
 Alpha virt. eigenvalues --    5.57063   5.61532   5.65291   5.65901   5.67743
 Alpha virt. eigenvalues --    5.70037   5.72198   5.75472   5.76099   5.77426
 Alpha virt. eigenvalues --    5.78532   5.79773   5.80115   5.81133   5.82321
 Alpha virt. eigenvalues --    5.83901   5.87880   5.91660   5.92560   5.93728
 Alpha virt. eigenvalues --    5.96259   5.97446   6.00142   6.00974   6.02535
 Alpha virt. eigenvalues --    6.51604   6.51960   6.52548   6.58537   6.60440
 Alpha virt. eigenvalues --    6.61744   7.21137   7.21409   7.21545   7.22037
 Alpha virt. eigenvalues --    7.22458   7.23016   7.27550   7.28428   7.29727
 Alpha virt. eigenvalues --    7.30910   7.31495   7.32729   7.33906   7.34952
 Alpha virt. eigenvalues --    7.35203   7.36302   7.37882   7.38501   7.41741
 Alpha virt. eigenvalues --    7.42301   7.42878   7.43563   7.44506   7.45545
 Alpha virt. eigenvalues --    7.46034   7.46942   7.47277   7.47775   7.49505
 Alpha virt. eigenvalues --    7.49814   7.50747   7.51762   7.52907   7.53446
 Alpha virt. eigenvalues --    7.53661   7.54672   7.55576   7.56016   7.57153
 Alpha virt. eigenvalues --    7.57248   7.58358   7.59026   7.60379   7.60656
 Alpha virt. eigenvalues --    7.62317   7.62983   7.64791   7.65684   7.66376
 Alpha virt. eigenvalues --    7.67825   7.69439   7.70489   7.71181   7.72055
 Alpha virt. eigenvalues --    7.72595   7.73724   7.74629   7.81882   7.86131
 Alpha virt. eigenvalues --    7.88073   7.89350   7.89649   7.90360   7.90586
 Alpha virt. eigenvalues --    7.91480   7.93421   7.94017   7.94132   7.95276
 Alpha virt. eigenvalues --    7.95855   7.95930   7.97299   7.99165   8.00130
 Alpha virt. eigenvalues --    8.01870   8.01978   8.04241   8.06589   8.07185
 Alpha virt. eigenvalues --    8.07771   8.09032   8.10743   8.12306   8.13432
 Alpha virt. eigenvalues --    8.19514   8.22230   8.23462   8.28601   8.29354
 Alpha virt. eigenvalues --    8.30191   8.32084   8.32094   8.33485   8.37354
 Alpha virt. eigenvalues --    8.38515   8.39503   8.41213   8.41623   8.42014
 Alpha virt. eigenvalues --    8.42112   8.42554   8.43037   8.43190   8.43452
 Alpha virt. eigenvalues --    8.43653   8.43740   8.44975   8.46471   8.46573
 Alpha virt. eigenvalues --    8.47021   8.47815   8.47986   8.50047   8.52861
 Alpha virt. eigenvalues --    8.53400   8.55036   8.55996   8.56224   8.56831
 Alpha virt. eigenvalues --    8.57425   8.58450   8.60110   8.60749   8.63271
 Alpha virt. eigenvalues --    8.64302   8.65060   8.66947   8.67749   8.69045
 Alpha virt. eigenvalues --    8.69680   8.73045   8.74146   8.74559   8.74802
 Alpha virt. eigenvalues --    8.77117   8.79303   8.81829   8.84661   8.85968
 Alpha virt. eigenvalues --    8.87574   8.88494   8.89428   8.91404   8.93907
 Alpha virt. eigenvalues --    8.95738   8.97929   9.01534   9.07546   9.08284
 Alpha virt. eigenvalues --    9.17690   9.21889   9.44492   9.46111   9.46446
 Alpha virt. eigenvalues --    9.47364   9.48004   9.48975   9.49400   9.67740
 Alpha virt. eigenvalues --    9.68508   9.68738   9.71740   9.72041   9.73245
 Alpha virt. eigenvalues --    9.74179   9.80189   9.80759   9.82373   9.83124
 Alpha virt. eigenvalues --    9.84976   9.87636   9.88498   9.88734   9.89383
 Alpha virt. eigenvalues --    9.89877   9.98404  24.69385  25.11348  25.14802
 Alpha virt. eigenvalues --   25.20072  25.56876  25.57525  25.58449  25.77132
 Alpha virt. eigenvalues --   25.77690  25.78109  25.87406  25.90222  25.90539
 Alpha virt. eigenvalues --   25.91603  25.96080  25.96399  25.96781  26.13763
 Alpha virt. eigenvalues --   26.19066  26.19366  26.19960  26.41477
          Condensed to atoms (all electrons):
               1          2          3          4          5          6
     1  C   23.991624   0.207334  -0.294383  -2.380255  -0.473131  -0.671705
     2  C    0.207334  13.466449  -0.596915  -2.722210  -0.146941  -2.428232
     3  C   -0.294383  -0.596915  12.512832  -2.462543  -1.389940   0.445310
     4  C   -2.380255  -2.722210  -2.462543  14.276675   1.231985  -2.145541
     5  C   -0.473131  -0.146941  -1.389940   1.231985   7.659229  -0.334360
     6  C   -0.671705  -2.428232   0.445310  -2.145541  -0.334360  12.862095
     7  C   -2.143075  -0.804755  -1.306553   1.373371  -0.443127  -2.430470
     8  H    0.106952  -0.158241   0.000392   0.068650   0.073041  -0.380966
     9  H    0.015395   0.009369   0.046524  -0.061823  -0.096229   0.667367
    10  H    0.002651   0.034184  -0.024475  -0.152578   0.574835  -0.204263
    11  H   -0.001771  -0.031562  -0.220082   0.575135  -0.093501   0.020159
    12  H    0.054899  -0.129025   0.423982  -0.229805   0.066483  -0.018400
    13  C    1.306446  -0.713065   0.451266   0.364168   0.085427  -0.717956
    14  C   -0.702086  -0.720945   0.526305   0.297486  -0.010377  -0.115953
    15  C   -2.600763  -0.974761   0.025673   0.065110  -0.028963   0.315537
    16  C   -0.910500  -0.155295  -0.103367  -0.020062  -0.003671   0.069834
    17  C   -0.851163   0.615452  -0.253317  -0.076557  -0.009408   0.052226
    18  C   -2.739005   0.572117  -1.197858  -0.657882  -0.082839   0.795356
    19  H   -0.161979   0.054217  -0.040558  -0.016753  -0.001615   0.019646
    20  H    0.067486   0.007933   0.008779   0.001929   0.000112  -0.005857
    21  H   -0.002285  -0.005527   0.000702   0.000055   0.000139  -0.001013
    22  H    0.009243   0.010839   0.000705   0.000116  -0.001290  -0.000232
    23  H    0.002333  -0.001900   0.048491   0.079462   0.029629  -0.150625
    24  C    1.188838   0.339610   0.025863  -0.053548   0.048627  -0.324729
    25  H   -0.376742   0.031678  -0.084650  -0.049266  -0.002564   0.106560
    26  H   -0.228263   0.028469   0.054834   0.060559   0.004894  -0.061421
    27  C   -2.383776  -0.088083  -0.262710  -0.276515  -0.036002   0.545763
    28  H    0.100115   0.007532  -0.001435   0.011978   0.042491  -0.057324
    29  H    0.061125  -0.007287  -0.009626  -0.029271  -0.009169   0.016903
    30  C   -0.827833   0.038808  -0.114270  -0.115830  -0.008540   0.073681
    31  H   -0.026407   0.000019   0.004708   0.005178  -0.001386  -0.002027
    32  H    0.023649   0.008437  -0.003886  -0.003790   0.000530   0.001261
    33  H   -0.061955  -0.004697  -0.008311  -0.007626  -0.000151   0.010389
    34  C   -0.588678  -0.709059  -0.158616  -0.684321  -0.046700   0.545051
    35  C   -1.514070  -0.297237   0.173444   0.315733   0.021042  -0.114427
    36  C   -0.486130  -0.628521   0.291677   0.285343   0.016191   0.008531
    37  C   -0.160872   0.062109  -0.062720  -0.029488  -0.000325  -0.000881
    38  C   -0.920937   0.276638  -0.237251  -0.099288  -0.023031   0.016166
    39  C   -1.267067   0.597186  -0.153591  -0.087574  -0.024667  -0.034580
    40  H   -0.171019   0.036487  -0.017256  -0.000633   0.000956   0.000520
    41  H    0.013365  -0.005444  -0.004195  -0.000938  -0.000311   0.000672
    42  H    0.016547   0.000760  -0.007116  -0.004752  -0.000378   0.000841
    43  H    0.014750  -0.002854  -0.002038  -0.003764  -0.000238   0.001137
    44  H    0.068504   0.070105  -0.007734  -0.039615  -0.012610   0.000684
               7          8          9         10         11         12
     1  C   -2.143075   0.106952   0.015395   0.002651  -0.001771   0.054899
     2  C   -0.804755  -0.158241   0.009369   0.034184  -0.031562  -0.129025
     3  C   -1.306553   0.000392   0.046524  -0.024475  -0.220082   0.423982
     4  C    1.373371   0.068650  -0.061823  -0.152578   0.575135  -0.229805
     5  C   -0.443127   0.073041  -0.096229   0.574835  -0.093501   0.066483
     6  C   -2.430470  -0.380966   0.667367  -0.204263   0.020159  -0.018400
     7  C   11.052400   0.435933  -0.336175   0.032134   0.006237  -0.066498
     8  H    0.435933   0.914146  -0.021362   0.001483  -0.001810   0.001072
     9  H   -0.336175  -0.021362   0.746771  -0.020799  -0.000685  -0.001941
    10  H    0.032134   0.001483  -0.020799   0.752727  -0.018321   0.000740
    11  H    0.006237  -0.001810  -0.000685  -0.018321   0.740306  -0.015338
    12  H   -0.066498   0.001072  -0.001941   0.000740  -0.015338   0.908565
    13  C   -0.339138   0.104970  -0.006141   0.003383  -0.003391  -0.004990
    14  C   -0.352903   0.030967  -0.000457  -0.003222  -0.005704  -0.042543
    15  C   -0.013704  -0.023425  -0.000040  -0.002817  -0.000565  -0.010791
    16  C    0.066602  -0.010436   0.000531  -0.000253  -0.000030  -0.000710
    17  C   -0.022685  -0.021171   0.002943  -0.000002   0.000255   0.001349
    18  C    0.143641  -0.043874   0.016765  -0.001303   0.001678   0.001817
    19  H   -0.007935  -0.002930   0.000411  -0.000054  -0.000044   0.000113
    20  H   -0.011226   0.000470  -0.000089   0.000006  -0.000003   0.000049
    21  H   -0.001005  -0.000375  -0.000026  -0.000003  -0.000003  -0.000029
    22  H   -0.001664   0.001676  -0.000084  -0.000028   0.000036  -0.000200
    23  H    0.007636  -0.025320  -0.001321   0.001348  -0.001187   0.002492
    24  C   -0.215395  -0.000121   0.001625   0.001418  -0.010349   0.011802
    25  H    0.126817  -0.027167   0.002213   0.000007  -0.000329  -0.003952
    26  H   -0.038367   0.010118  -0.001158   0.000103   0.000179  -0.002413
    27  C    0.704150  -0.018925  -0.001578  -0.002428   0.015621   0.078343
    28  H   -0.027439   0.006709  -0.000542   0.001692  -0.001366   0.000369
    29  H   -0.030246  -0.001918   0.000749  -0.000109  -0.000195  -0.010158
    30  C    0.017481  -0.007684   0.000531  -0.000028   0.001723   0.007426
    31  H    0.002932   0.002253  -0.000180  -0.000012   0.000126   0.000366
    32  H   -0.002687  -0.000545   0.000069   0.000016  -0.000012  -0.001020
    33  H    0.008389  -0.000571   0.000018  -0.000043   0.000006   0.000146
    34  C    0.441242  -0.009076   0.001947  -0.001335   0.002255   0.008736
    35  C    0.102214  -0.019239  -0.002843  -0.000513   0.000660  -0.055644
    36  C    0.332370  -0.011576  -0.000247  -0.000360  -0.002097  -0.067159
    37  C   -0.009888  -0.000449   0.000056   0.000108  -0.001643   0.015646
    38  C   -0.085601   0.004058   0.000439  -0.000131   0.003720   0.004825
    39  C   -0.190246   0.005793   0.001684   0.000282   0.003396   0.041431
    40  H    0.018963  -0.000670  -0.000038   0.000007  -0.000013   0.006764
    41  H    0.002705  -0.000039   0.000000  -0.000004   0.000055  -0.000802
    42  H    0.002804  -0.000012   0.000003  -0.000003   0.000013   0.000341
    43  H    0.004951  -0.000145   0.000001  -0.000016  -0.000036  -0.000154
    44  H   -0.000758   0.000995  -0.000021  -0.000174   0.001641  -0.011053
              13         14         15         16         17         18
     1  C    1.306446  -0.702086  -2.600763  -0.910500  -0.851163  -2.739005
     2  C   -0.713065  -0.720945  -0.974761  -0.155295   0.615452   0.572117
     3  C    0.451266   0.526305   0.025673  -0.103367  -0.253317  -1.197858
     4  C    0.364168   0.297486   0.065110  -0.020062  -0.076557  -0.657882
     5  C    0.085427  -0.010377  -0.028963  -0.003671  -0.009408  -0.082839
     6  C   -0.717956  -0.115953   0.315537   0.069834   0.052226   0.795356
     7  C   -0.339138  -0.352903  -0.013704   0.066602  -0.022685   0.143641
     8  H    0.104970   0.030967  -0.023425  -0.010436  -0.021171  -0.043874
     9  H   -0.006141  -0.000457  -0.000040   0.000531   0.002943   0.016765
    10  H    0.003383  -0.003222  -0.002817  -0.000253  -0.000002  -0.001303
    11  H   -0.003391  -0.005704  -0.000565  -0.000030   0.000255   0.001678
    12  H   -0.004990  -0.042543  -0.010791  -0.000710   0.001349   0.001817
    13  C   12.556711   0.544619  -2.309596  -0.427097  -2.072292  -1.754821
    14  C    0.544619  11.420442  -0.746426  -1.341685  -0.202353  -0.586651
    15  C   -2.309596  -0.746426  11.904971   1.230270  -0.783578   0.950264
    16  C   -0.427097  -1.341685   1.230270   7.850195   0.164359  -0.395440
    17  C   -2.072292  -0.202353  -0.783578   0.164359  10.149181  -0.499852
    18  C   -1.754821  -0.586651   0.950264  -0.395440  -0.499852  11.534148
    19  H   -0.235365  -0.065171   0.032455   0.099290  -0.041216   0.484803
    20  H    0.009406   0.043891  -0.027774  -0.158356   0.559049  -0.251125
    21  H    0.003789  -0.021847  -0.117552   0.575819  -0.198321   0.009622
    22  H   -0.000066  -0.172256   0.526087  -0.112211   0.013268  -0.006794
    23  H   -0.138753   0.475338  -0.114182   0.079488  -0.030823  -0.130373
    24  C   -0.065184  -0.202548  -0.378576   0.049630  -0.034483  -0.476427
    25  H   -0.164597  -0.049384   0.000010   0.015529   0.054746   0.138756
    26  H    0.068664  -0.002842  -0.002165  -0.011056  -0.084331  -0.036655
    27  C   -0.457158  -1.286932  -0.387855  -0.032919   0.102608  -0.102810
    28  H    0.017161   0.026086   0.000630  -0.001148   0.000003  -0.007060
    29  H    0.016287   0.025400   0.010076   0.002483  -0.001971   0.010966
    30  C   -0.131331  -0.199394  -0.038105  -0.008021   0.043435   0.075377
    31  H   -0.008004  -0.006977  -0.001636  -0.000273   0.000465  -0.003785
    32  H   -0.000692   0.003965   0.001421   0.000818   0.004332   0.011709
    33  H   -0.005386  -0.005874  -0.000986  -0.000019  -0.000126  -0.001398
    34  C    0.921211  -0.310869  -0.263324  -0.027406  -0.486702  -0.474225
    35  C   -0.114284   0.761236   0.443934   0.029482  -0.146613  -0.124296
    36  C   -0.494224   0.157563   0.138941   0.017926  -0.198197  -0.500473
    37  C   -0.039378  -0.051615  -0.008278   0.003157   0.041936   0.077562
    38  C   -0.269324  -0.166739   0.018680   0.020734   0.226892   0.615045
    39  C   -0.740051  -0.915223  -0.352263   0.017686   0.526636   0.690196
    40  H   -0.098696  -0.072610  -0.029403  -0.000099   0.032933   0.032522
    41  H   -0.002868   0.003323   0.001597   0.000216  -0.002478   0.000594
    42  H   -0.004118  -0.005066  -0.001854   0.000164  -0.000142  -0.000788
    43  H   -0.004519  -0.006231  -0.005040   0.000030  -0.002980  -0.007992
    44  H    0.024137  -0.036985  -0.025937  -0.015754   0.011174   0.010390
              19         20         21         22         23         24
     1  C   -0.161979   0.067486  -0.002285   0.009243   0.002333   1.188838
     2  C    0.054217   0.007933  -0.005527   0.010839  -0.001900   0.339610
     3  C   -0.040558   0.008779   0.000702   0.000705   0.048491   0.025863
     4  C   -0.016753   0.001929   0.000055   0.000116   0.079462  -0.053548
     5  C   -0.001615   0.000112   0.000139  -0.001290   0.029629   0.048627
     6  C    0.019646  -0.005857  -0.001013  -0.000232  -0.150625  -0.324729
     7  C   -0.007935  -0.011226  -0.001005  -0.001664   0.007636  -0.215395
     8  H   -0.002930   0.000470  -0.000375   0.001676  -0.025320  -0.000121
     9  H    0.000411  -0.000089  -0.000026  -0.000084  -0.001321   0.001625
    10  H   -0.000054   0.000006  -0.000003  -0.000028   0.001348   0.001418
    11  H   -0.000044  -0.000003  -0.000003   0.000036  -0.001187  -0.010349
    12  H    0.000113   0.000049  -0.000029  -0.000200   0.002492   0.011802
    13  C   -0.235365   0.009406   0.003789  -0.000066  -0.138753  -0.065184
    14  C   -0.065171   0.043891  -0.021847  -0.172256   0.475338  -0.202548
    15  C    0.032455  -0.027774  -0.117552   0.526087  -0.114182  -0.378576
    16  C    0.099290  -0.158356   0.575819  -0.112211   0.079488   0.049630
    17  C   -0.041216   0.559049  -0.198321   0.013268  -0.030823  -0.034483
    18  C    0.484803  -0.251125   0.009622  -0.006794  -0.130373  -0.476427
    19  H    0.911377  -0.016451   0.002149  -0.001823  -0.002243   0.064514
    20  H   -0.016451   0.755707  -0.017983   0.000457  -0.000802  -0.004916
    21  H    0.002149  -0.017983   0.770417  -0.014352   0.003950  -0.001042
    22  H   -0.001823   0.000457  -0.014352   0.745220  -0.018618  -0.007539
    23  H   -0.002243  -0.000802   0.003950  -0.018618   0.941023   0.018436
    24  C    0.064514  -0.004916  -0.001042  -0.007539   0.018436   7.665772
    25  H    0.009288  -0.000536   0.000348  -0.000687  -0.000193   0.393205
    26  H   -0.034468   0.001210   0.000221  -0.000044   0.004876   0.230119
    27  C   -0.000976   0.001411  -0.001693   0.000426  -0.034907  -1.375991
    28  H   -0.001779   0.000160  -0.000020  -0.000038   0.001729   0.085077
    29  H    0.002905  -0.000334   0.000030   0.000006   0.000175  -0.084741
    30  C   -0.000927   0.000828  -0.000319   0.000241  -0.008765  -0.608283
    31  H   -0.002570   0.000058  -0.000016   0.000009  -0.000280  -0.050052
    32  H    0.001056  -0.000142   0.000011   0.000007  -0.000125   0.000096
    33  H    0.000750  -0.000012  -0.000003  -0.000006  -0.000007   0.005689
[...]
 874813,-0.31933052,-0.07970590,-0.02755995,0.34141749,-0.00001028,0.00
 041870,-0.00042439,0.00012092,0.00011168,0.00010604,-0.00003385,-0.000
 04974,-0.00001587,-0.00000773,0.00000439,0.00001099,-0.00001355,0.0000
 0082,-0.00001192,-0.00000023,0.00000968,0.00001630,-0.00004401,0.00000
 619,-0.00006823,0.00001079,-0.00000210,-0.00000668,-0.00001066,-0.0000
 0062,0.00000298,-0.00000207,0.00000281,-0.00000334,-0.00000841,0.00000
 082,-0.00000922,-0.00001247,0.00002739,0.00000232,-0.00011809,-0.00001
 635,0.00012676,0.00002672,0.00006375,-0.00002645,-0.00002746,-0.000046
 26,-0.00002229,0.00003672,0.00000418,0.00003117,0.00001400,0.00001450,
 -0.00002849,-0.00000293,0.00000631,0.00003532,-0.00000019,0.00001635,-
 0.00000163,0.00000453,-0.00000387,-0.00000300,-0.00000023,0.00000272,0
 .00000131,-0.00000256,0.00000766,-0.00000161,-0.00001095,0.00000773,-0
 .00000504,-0.00000085,-0.00007989,-0.00017401,0.00000519,-0.00000951,0
 .00003539,0.00005368,-0.00001994,0.00001109,-0.00003210,0.00006589,0.0
 0005171,-0.00000647,-0.00000198,0.00000646,-0.00000016,0.00003416,-0.0
 0001459,-0.00003139,-0.00000618,-0.00001825,0.00000869,-0.00001661,0.0
 0000040,0.00001812,0.00000911,0.00001653,-0.00001932,-0.00000151,0.000
 01835,0.00419728,0.00412727,0.00323180,-0.00098955,-0.00032416,0.00029
 032,0.00540043,0.00213051,0.00324759,0.00561430,-0.00709551,0.00475702
 ,-0.05613095,0.05803005,-0.02802656,0.00006418,0.01274379,-0.00881257,
 -0.00291628,-0.00197318,-0.00106686,0.04840309,0.00000065,-0.00028216,
 0.00093226,-0.00002208,-0.00024237,-0.00021028,0.00001407,-0.00002550,
 0.00000843,-0.00000279,0.00000088,-0.00000388,0.00001639,-0.00000765,0
 .00000171,0.00000968,-0.00003409,-0.00000816,0.00012357,0.00002159,0.0
 0005575,-0.00000766,-0.00000010,-0.00000393,0.00001335,-0.00001226,0.0
 0000778,0.00000669,-0.00000299,0.00000315,0.00000761,0.00000202,0.0000
 0823,-0.00003099,-0.00000229,-0.00000517,0.00024736,0.00001037,-0.0000
 3814,-0.00005450,-0.00001698,-0.00002422,-0.00002625,0.00000139,0.0000
 0085,-0.00001312,-0.00002957,0.00001616,-0.00000005,0.00002693,-0.0000
 0017,-0.00003280,-0.00007112,0.00004515,0.00002090,0.00000501,-0.00001
 051,-0.00001391,-0.00001414,-0.00000996,-0.00000315,-0.00000713,-0.000
 00187,-0.00000732,-0.00000717,0.00000525,0.00000376,0.00000276,-0.0000
 1393,-0.00004257,-0.00003389,0.00009053,0.00003601,-0.00000698,-0.0000
 4577,0.00002665,-0.00000503,-0.00000816,-0.00006179,-0.00002828,-0.000
 03042,-0.00000121,0.00001253,0.00000341,0.00000317,-0.00000017,0.00002
 830,0.00004720,0.00000076,0.00002771,-0.00000936,0.00000597,-0.0000029
 7,-0.00001942,0.00000016,-0.00002155,0.00000981,0.00000862,-0.00001823
 ,0.00436193,-0.00077434,-0.00253285,-0.00024581,0.00005374,-0.00096233
 ,0.00192271,0.00286078,0.00075880,0.00095801,0.00211548,-0.00086564,0.
 05809467,-0.23775276,0.12220015,0.00451728,-0.01537981,0.01452734,-0.0
 0180286,0.00016102,-0.00078486,-0.06590767,0.24973452,0.00013800,-0.00
 047733,0.00041140,0.00003689,-0.00009913,-0.00006350,-0.00000652,-0.00
 002681,0.00000176,0.00000707,0.00000493,0.00001527,-0.00000176,0.00000
 208,-0.00000103,0.00000042,-0.00001046,-0.00000062,0.00004594,0.000004
 42,0.00000057,0.00000002,-0.00000091,-0.00000191,0.00000133,-0.0000027
 9,0.00000398,-0.00000096,0.00000202,-0.00000109,0.00000200,0.00000086,
 -0.00000341,0.00001872,0.00000783,-0.00000213,0.00008764,0.00001561,-0
 .00002438,-0.00002464,0.00000669,0.00001668,-0.00000751,0.00000402,0.0
 0000832,-0.00000460,-0.00000516,-0.00000304,-0.00000770,0.00000210,-0.
 00000160,-0.00001170,-0.00000853,0.00001573,0.00000066,-0.00000646,-0.
 00000794,-0.00000080,-0.00000224,0.00000117,0.00000198,0.00000060,-0.0
 0000178,0.00000039,-0.00000371,-0.00000200,0.00000971,-0.00000801,-0.0
 0000579,-0.00001674,0.00002885,0.00003735,-0.00000743,0.00000796,-0.00
 000728,-0.00000435,-0.00001364,-0.00003406,-0.00003763,-0.00000621,-0.
 00001150,-0.00000961,0.00001311,0.00000765,0.00002137,0.00002440,0.000
 02156,0.00002363,0.00000316,0.00000804,-0.00000652,0.00000576,0.000001
 89,-0.00000441,-0.00000034,-0.00001543,-0.00000613,-0.00000016,-0.0000
 0061,0.00286992,-0.00199110,0.00020222,0.00031268,-0.00088871,-0.00072
 895,0.00366458,-0.00007070,-0.00490915,-0.00810442,0.02653584,-0.01107
 700,-0.02800016,0.12235241,-0.13699289,0.00387302,-0.01275096,0.010637
 02,-0.00132198,-0.00019252,0.00066652,0.02812204,-0.13280509,0.1417773
 8,-0.00072755,-0.00041505,-0.00018400,0.00000464,0.00011047,0.00004189
 ,-0.00001617,0.00001824,0.00000051,0.00001180,0.00001186,0.00001250,-0
 .00001071,0.00000248,-0.00000504,-0.00000363,0.00000465,0.00000985,-0.
 00003325,0.00000979,-0.00005470,0.00000266,-0.00000362,-0.00000455,-0.
 00000729,0.00000026,0.00000206,-0.00000410,0.00000186,-0.00000044,-0.0
 0000788,0.00000120,-0.00000966,0.00004474,0.00000641,0.00002493,0.0001
 0760,-0.00000861,0.00003406,0.00000492,0.00003017,0.00005788,-0.000067
 45,-0.00002877,0.00000119,0.00002364,-0.00002234,0.00005119,0.00002334
 ,0.00005406,-0.00002853,-0.00008258,-0.00001540,-0.00001033,0.00000021
 ,-0.00000719,-0.00001187,0.00000487,-0.00000491,-0.00000528,0.00000592
 ,-0.00000249,-0.00000260,-0.00000278,0.00000197,-0.00000093,0.00002400
 ,-0.00002141,-0.00002017,-0.00001440,0.00005381,0.00001931,-0.00002577
 ,0.00001387,-0.00000124,-0.00003434,0.00000001,-0.00003833,0.00003491,
 0.00001440,-0.00000664,-0.00000722,-0.00000143,0.00000017,0.00002597,-
 0.00000937,-0.00001028,0.00000447,-0.00000731,-0.00000033,-0.00000197,
 0.00000178,-0.00000111,-0.00000054,0.00000420,-0.00000590,-0.00000880,
 -0.00000363,0.00000645,-0.00056893,-0.00060685,-0.00036119,0.00559860,
 0.00293106,0.00012503,-0.00008809,0.00436473,0.00409199,-0.10717975,0.
 10929077,0.06404978,-0.00041091,0.00654589,0.00218982,0.00586144,0.001
 60094,0.00292759,-0.00001969,0.00037265,0.00011644,-0.00300075,-0.0018
 8510,-0.00101813,0.10338189,-0.00033491,-0.00013914,-0.00015202,-0.000
 02303,0.00005516,-0.00000778,0.00004219,0.00002678,-0.00000014,-0.0000
 3009,0.00000201,-0.00002709,0.00000828,-0.00002560,-0.00000435,0.00002
 000,0.00000140,0.00001852,-0.00001639,0.00003213,-0.00001706,-0.000003
 25,-0.00000156,-0.00000250,0.00000145,-0.00000565,0.00000173,0.0000054
 8,-0.00000479,0.00000203,0.00000469,0.00000463,0.00000130,-0.00002075,
 -0.00003146,0.00000660,0.00008511,0.00003989,0.00002458,0.00001839,-0.
 00003782,0.00001662,-0.00000249,0.00001189,-0.00001309,-0.00001068,-0.
 00000877,0.00001549,-0.00000075,0.00001971,-0.00000633,-0.00002504,-0.
 00001583,-0.00000195,0.00000469,0.00000317,-0.00000399,-0.00000339,-0.
 00000624,-0.00001031,-0.00000428,-0.00000906,-0.00000350,-0.00000062,-
 0.00000439,0.00000406,-0.00002001,0.00002227,-0.00001936,-0.00000360,-
 0.00002133,0.00000681,0.00000272,-0.00000046,-0.00002438,-0.00000727,0
 .00000795,-0.00000704,0.00000606,0.00000968,-0.00000325,0.00000227,-0.
 00000568,-0.00000251,-0.00000146,-0.00001617,-0.00000667,0.00000573,-0
 .00000280,0.00000556,-0.00000052,-0.00000330,-0.00000413,-0.00000299,0
 .00000264,0.,0.00000452,0.00000420,-0.00000379,-0.00064520,-0.00016707
 ,0.00078344,0.00275995,-0.00178967,0.00450053,0.01249651,-0.01461884,-
 0.01393245,0.10928061,-0.21362326,-0.08930347,-0.00157193,0.00501017,0
 .00251271,0.00188124,0.00264929,0.00137197,-0.00002908,0.00010418,0.00
 022896,-0.00165675,-0.00007078,-0.00093905,-0.12100047,0.22319176,-0.0
 0019930,-0.00014951,0.00000238,-0.00003493,-0.00000119,-0.00001173,-0.
 00000504,0.00000685,0.00000641,0.00000614,-0.00000331,0.00000677,0.000
 00267,0.00000546,0.00000124,-0.00000860,-0.00000007,-0.00000258,0.0000
 1463,-0.00001069,0.00000927,0.00000033,0.00000549,-0.00000286,0.000001
 54,-0.00000214,-0.00000017,0.00000182,0.00000004,0.00000095,0.00000070
 ,0.00000082,0.00000099,0.00000325,0.00001056,-0.00000557,0.00007882,0.
 00002809,0.00002661,-0.00003012,0.00001090,0.00001091,-0.00002924,-0.0
 0001919,0.00000931,0.00000632,-0.00001860,0.00002541,0.00002408,0.0000
 2522,-0.00000234,-0.00005197,-0.00000962,-0.00001978,0.00001765,0.0000
 0662,0.00001227,-0.00000111,-0.00000376,-0.00000531,0.00000077,-0.0000
 0477,0.00000136,-0.00000312,-0.00000230,0.00000195,0.00001887,-0.00001
 405,-0.00000142,-0.00005497,0.00001030,-0.00004832,0.00003354,-0.00003
 346,0.00001866,0.00005141,0.00001488,0.00006201,0.00001184,0.00002386,
 0.00003447,0.00002338,-0.00002145,-0.00001896,-0.00003912,-0.00004477,
 -0.00002445,-0.00000697,-0.00001389,0.00000800,0.00000380,-0.00000600,
 -0.00001115,-0.00000415,0.00000021,0.00001528,0.00001003,0.00000244,-0
 .00000312,-0.00033167,0.00075777,-0.00103334,0.00054286,0.00366477,-0.
 00056560,-0.00868899,0.01337542,0.01122883,0.06395111,-0.08924017,-0.1
 1137462,0.01504950,-0.02486535,-0.00812381,0.00253055,0.00222702,-0.00
 468588,0.00072879,-0.00111707,-0.00054028,-0.00138027,-0.00015065,0.00
 072857,-0.07101202,0.09589593,0.11341645,0.00012243,-0.00026189,0.0006
 8581,0.00006317,-0.00000400,0.00006876,-0.00009909,0.00010284,-0.00003
 267,0.00003639,-0.00002686,0.00000537,-0.00002743,0.00003689,0.0000017
 8,-0.00001946,-0.00000323,-0.00002151,-0.00003222,-0.00004061,-0.00001
 665,0.00000570,-0.00001254,-0.00000161,-0.00000566,0.00000069,-0.00000
 409,-0.00000305,0.00000071,-0.00000027,-0.00003093,-0.00000478,-0.0000
 0395,0.00003612,-0.00001600,0.00005305,-0.00012185,-0.00020423,-0.0000
 3325,0.00003961,-0.00004458,-0.00001659,0.00002961,0.00001708,0.000001
 58,-0.00002144,0.00002489,-0.00002662,-0.00003944,-0.00003297,0.000018
 60,0.00004877,0.00004188,0.00000520,-0.00000163,-0.00000227,-0.0000110
 9,0.00000441,-0.00000214,-0.00000477,0.00000138,-0.00000328,-0.0000044
 1,0.00000789,0.00000379,-0.00000188,-0.00002171,0.00000714,-0.00000116
 ,-0.00014594,0.00024800,0.00004029,-0.00005874,-0.00000996,0.00010589,
 -0.00000490,0.00000160,-0.00003234,-0.00001385,-0.00001996,0.00001541,
 -0.00001159,0.00000280,0.00000824,-0.00001069,0.00001190,0.00001377,-0
 .00002322,-0.00000570,-0.00001292,0.00000433,0.00000430,-0.00000240,0.
 00000285,0.00000138,-0.00000233,-0.00000596,-0.00000653,0.00001080,0.0
 0474372,0.00501918,0.00214892,-0.00021147,-0.00167312,0.01542190,-0.06
 078719,0.00207833,0.07299031,0.00543121,0.00081802,-0.00763329,0.00520
 977,0.00351220,0.00048098,-0.00085587,0.00014201,-0.00043204,-0.000779
 85,-0.00042545,-0.00020417,0.00023381,0.00013351,-0.00034883,-0.002775
 18,-0.00183314,-0.00083663,0.05322861,0.00024246,0.00047776,-0.0009493
 2,-0.00012563,0.00003313,-0.00004433,-0.00003392,0.00002083,0.00001403
 ,0.00002444,-0.00001060,0.00002419,0.00000270,0.00001110,0.00001735,-0
 .00001476,-0.00001379,-0.00001641,0.00002854,-0.00002882,0.00003463,-0
 .00000005,0.00000175,-0.00000546,0.00000734,-0.00000144,-0.00000297,0.
 00000346,0.00000182,-0.00000205,0.00000406,0.00000403,-0.00000218,-0.0
 0000183,0.00001005,-0.00000949,0.00006858,0.00013314,0.00000806,-0.000
 05771,-0.00003399,-0.00000703,0.00000795,0.00000956,0.00002440,-0.0000
 3714,-0.00000968,-0.00000908,-0.00000780,-0.00000728,0.00000689,-0.000
 01312,-0.00001735,0.00001034,0.00001450,-0.00000329,0.00000317,-0.0000
 0160,-0.00000624,-0.00000217,0.00000112,-0.00000497,-0.00000238,0.0000
 0162,-0.00002197,-0.00000140,0.00002205,-0.00000701,-0.00000912,0.0001
 1285,-0.00033572,-0.00003063,0.00002178,0.00001030,-0.00012952,-0.0000
 2533,0.00001773,-0.00000552,-0.00005079,-0.00004376,-0.00001162,0.0000
 0310,0.00000383,0.00000314,0.00000374,0.00001302,0.00001660,0.00001631
 ,0.00000700,0.00000124,-0.00000250,0.00000388,0.00000295,-0.00000395,-
 0.00000035,-0.00000473,0.00000350,0.00000604,-0.00000690,0.00471355,-0
 .00201329,-0.00114664,0.00655735,0.00555575,-0.02418108,0.00218934,-0.
 05758186,0.02328689,-0.00758805,0.00281908,0.02589696,0.00375921,-0.00
 301572,0.00315283,0.00021333,-0.00133000,-0.00013944,-0.00040709,-0.00
 008032,-0.00013806,-0.00027639,-0.00000805,0.00133556,-0.00159413,0.00
 020325,-0.00104824,-0.00574535,0.05503383,0.00000890,0.00054407,-0.000
 44177,-0.00011280,-0.00000519,-0.00008453,0.00002569,-0.00000233,0.000
 03115,-0.00000657,-0.00001665,-0.00000351,0.00001882,-0.00001131,0.000
 01202,0.00000253,-0.00001357,-0.00000118,0.00004429,0.00000261,0.00004
 346,-0.00000203,0.00000651,-0.00000623,0.00001015,-0.00000503,0.000000
 22,0.00000782,-0.00000221,-0.00000016,0.00001684,0.00000658,0.00000203
 ,-0.00002472,-0.00000514,-0.00004325,0.00010981,0.00007456,-0.00001166
 ,-0.00003337,-0.00004943,-0.00002766,0.00001307,0.00001677,0.00001724,
 -0.00005021,-0.00001613,0.00000037,-0.00000848,0.00000437,0.00001281,-
 0.00000375,-0.00003063,-0.00000336,0.00001450,0.00000394,0.00000874,-0
 .00000554,-0.00000737,-0.00000821,-0.00000299,-0.00001245,-0.00000477,
 0.00000097,-0.00002206,0.00000386,0.00000523,0.00000635,-0.00000987,0.
 00005997,-0.00026067,0.00001497,0.00002676,0.00000234,-0.00009790,-0.0
 0000500,0.00002410,0.00001215,-0.00004718,-0.00002057,-0.00000375,0.00
 001166,-0.00000465,-0.00000141,-0.00001571,0.00000259,0.00000712,0.000
 01036,0.00000682,0.00000325,0.00000035,-0.00000463,-0.00000186,-0.0000
 0153,0.00000036,0.00000529,0.00000807,0.00000902,-0.00000846,0.0026031
 4,-0.00169520,0.00156345,0.00270166,0.00302252,-0.00975893,0.07298403,
 0.02296631,-0.31314644,0.00516250,-0.00126857,-0.01161296,0.00009114,0
 .00392915,0.00080105,-0.00037152,-0.00022539,0.00062534,-0.00023007,-0
 .00011944,-0.00014414,0.00030635,-0.00012345,-0.00066318,-0.00122960,-
 0.00024594,0.00050703,-0.08094305,-0.02568752,0.33184636,-0.00202869,-
 0.00127935,-0.00071012,-0.00014427,0.00042269,0.00038903,-0.00058034,0
 .00008525,0.00017179,-0.00004271,-0.00007958,-0.00004939,-0.00000061,0
 .00001035,0.00000302,0.00000328,-0.00002963,0.00006526,-0.00006384,0.0
 0014989,-0.00023780,0.00002124,-0.00003660,-0.00003749,-0.00001599,-0.
 00002863,0.00002107,0.00001847,-0.00001392,-0.00000341,-0.00000674,0.0
 0000546,-0.00000130,-0.00007213,-0.00027080,0.00021885,0.00042327,0.00
 028214,0.00016764,0.00018818,0.00022662,0.00048362,-0.00040572,-0.0001
 8272,-0.00006178,0.00005328,-0.00012353,0.00017462,0.00009121,0.000166
 00,-0.00010864,-0.00036771,-0.00006219,-0.00008843,0.00001823,-0.00000
 766,-0.00000750,0.00000912,-0.00001264,-0.00000995,0.00000574,-0.00001
 241,-0.00001262,-0.00000056,-0.00002969,0.00000011,0.00018809,0.000229
 96,-0.00002986,-0.00011865,-0.00011647,-0.00007484,0.00003741,0.000011
 25,-0.00002939,0.00000618,0.00001038,-0.00008789,0.00000077,0.00001791
 ,-0.00000653,-0.00003052,0.00000867,0.00002102,0.00001483,0.00000398,0
 .00000648,-0.00000605,-0.00000463,0.00000365,0.00000014,-0.00000253,-0
 .00000208,-0.00000324,0.00000422,-0.00001575,0.00000045,0.00000080,0.0
 0000155,0.00500635,-0.00737007,0.00436951,-0.05483873,0.05409049,-0.02
 609223,0.00072019,0.01344315,-0.00878300,0.00450508,0.00438788,0.00351
 634,-0.00095259,-0.00031302,0.00020175,0.00470363,0.00207543,0.0031935
 7,0.00035251,-0.00032950,0.00033930,-0.00077894,-0.00038455,-0.0002854
 5,-0.00006585,0.00061820,-0.00039619,-0.00314141,-0.00203571,-0.001150
 51,0.04729762,-0.00107268,-0.00111712,-0.00063659,0.00036106,0.0002940
 0,0.00004107,0.00059830,0.00027967,-0.00021679,-0.00021669,0.00017842,
 -0.00023806,-0.00002915,-0.00021748,-0.00008143,0.00022327,0.00000251,
 0.00011485,-0.00029327,0.00013717,-0.00007431,0.00001046,-0.00003832,-
 0.00000990,-0.00001163,-0.00000334,-0.00000268,-0.00000091,-0.00002775
 ,0.00001377,-0.00002338,0.00000627,-0.00000891,-0.00003988,-0.00037032
 ,0.00020085,0.00048716,0.00009491,-0.00064557,-0.00024414,-0.00092973,
 -0.00056272,-0.00006126,-0.00020765,0.00003114,0.00007622,0.00001342,0
 .00007382,-0.00001400,0.00004768,-0.00004539,0.00000692,-0.00003469,0.
 00010478,0.00001476,0.00000010,0.00001004,0.00000868,-0.00000516,0.000
 00277,0.00002346,-0.00000238,0.00000623,-0.00003258,0.00002361,0.00000
 950,0.00029142,-0.00067772,-0.00043459,-0.00013376,0.00007681,0.000003
 95,-0.00000940,0.00004804,0.00005079,-0.00000622,0.00000525,-0.0000469
 7,0.00002601,0.00001422,0.00001338,-0.00002759,0.00000574,0.00001621,0
 .00001044,0.00001212,0.00000262,-0.00002457,-0.00001041,0.00000330,0.0
 0000246,0.00000043,-0.00000008,-0.00000291,0.00000499,-0.00000947,-0.0
 0000509,-0.00000661,0.00000903,0.00037307,0.00190215,0.00080755,0.0543
 4819,-0.24094087,0.12423536,0.00477151,-0.01573222,0.01459563,0.004546
 66,-0.00081009,-0.00255879,-0.00028922,0.00011132,-0.00082446,0.001713
 51,0.00235749,0.00041629,0.00016788,0.00007128,-0.00015710,-0.00035823
 ,-0.00020894,-0.00004822,0.00019057,-0.00079249,0.00070762,-0.00183054
 ,0.00019867,-0.00077347,-0.06352492,0.25624704,-0.00132717,0.00067693,
 0.00061514,0.00012462,-0.00011409,0.00003845,-0.00005961,0.00004424,0.
 00018371,0.00018851,-0.00012543,0.00007226,-0.00003081,0.00017571,0.00
 005043,-0.00013296,-0.00003758,-0.00012263,0.00020744,-0.00022651,0.00
 003569,0.00002469,0.00001136,-0.00001782,-0.00000799,0.00000509,0.0000
 0541,-0.00001445,0.00000503,0.00000020,-0.00003052,-0.00001481,-0.0000
 1268,-0.00001764,0.00008267,-0.00001747,0.00026890,-0.00010948,-0.0002
 0506,-0.00017437,0.00010922,-0.00010438,-0.00043619,-0.00023210,0.0001
 6316,0.00019292,-0.00015551,0.00024105,0.00024333,0.00026790,-0.000071
 54,-0.00042289,-0.00011306,-0.00023834,0.00004260,-0.00001327,0.000062
 34,0.00001718,0.00000952,0.00000927,0.00004175,0.00000530,0.00001656,-
 0.00001138,0.00003206,-0.00000650,0.00027820,-0.00031641,0.00019657,-0
 .00007538,-0.00002763,-0.00006009,0.00005742,-0.00006710,-0.00001530,0
 .00004968,0.00004606,0.00013018,-0.00001500,0.00007434,0.00010409,0.00
 004394,-0.00003418,-0.00002080,-0.00008269,-0.00005606,-0.00002173,-0.
 00003076,-0.00003834,-0.00000887,0.00001238,-0.00000951,-0.00001740,0.
 00001122,-0.00000099,0.00003464,-0.00000315,-0.00000493,0.00001342,-0.
 00729879,0.02584688,-0.01174559,-0.02558519,0.12390926,-0.13817981,0.0
 0391090,-0.01325324,0.01107193,0.00316958,-0.00176264,0.00013292,0.000
 23883,-0.00079520,-0.00063594,0.00360309,-0.00017399,-0.00503266,-0.00
 040934,0.00141495,-0.00068922,-0.00030698,-0.00003875,-0.00000282,0.00
 026025,-0.00065473,0.00034615,-0.00144813,-0.00024594,0.00056726,0.024
 93396,-0.13409505,0.14313580\\-0.00000005,-0.00000028,0.00000011,0.000
 00017,-0.00000047,0.00000002,0.00000026,0.00000057,0.00000054,-0.00000
 061,0.00000088,0.00000013,-0.00000028,-0.00000017,0.00000023,0.0000004
 2,0.00000018,0.00000122,-0.00000064,0.00000029,0.00000058,-0.00000007,
 -0.00000014,0.00000078,-0.00000016,0.,0.00000116,-0.00000021,0.0000004
 5,0.00000087,-0.00000007,0.00000059,0.00000005,-0.00000008,0.00000040,
 -0.00000037,0.00000053,0.00000013,0.00000027,-0.00000022,0.00000039,0.
 00000051,-0.00000040,0.00000037,0.00000078,0.00000006,-0.00000015,0.00
 000104,0.00000015,0.00000037,0.00000018,-0.00000049,-0.00000051,0.0000
 0020,0.00000019,-0.00000048,-0.00000004,0.,-0.00000043,0.00000046,-0.0
 0000028,0.00000027,0.00000083,-0.00000021,0.00000066,0.00000102,-0.000
 00021,0.00000046,0.00000069,-0.00000019,-0.00000064,-0.00000009,0.0000
 0011,-0.00000062,0.00000034,0.00000026,-0.00000058,-0.00000025,0.00000
 050,-0.00000063,-0.00000021,0.00000015,-0.00000050,-0.00000005,0.00000
 010,-0.00000044,-0.00000051,0.00000034,-0.00000114,-0.00000031,0.00000
 032,-0.00000129,-0.00000005,0.00000035,-0.00000119,-0.00000053,0.00000
 033,-0.00000123,-0.00000035,0.,0.00000014,-0.00000070,-0.00000018,0.00
 000075,-0.00000026,0.00000001,0.00000076,-0.00000075,-0.00000012,0.000
 00059,-0.00000111,0.00000020,0.00000011,-0.00000131,0.00000007,0.00000
 015,-0.00000049,0.00000012,-0.00000031,-0.00000087,0.00000019,0.000000
 03,-0.00000144,0.00000006,0.00000081,-0.00000143,-0.00000021,0.0000011
 0,-0.00000078,-0.00000019,0.00000074,-0.00000012\\\@


  DISAPPOINTMENT IS THE NURSE OF WISDOM.               
                              SIR BOYLE ROCHE                 
 Job cpu time:      10 days  8 hours  3 minutes 35.9 seconds.
 Elapsed time:       1 days 17 hours 20 minutes 41.8 seconds.
 File lengths (MBytes):  RWF=   5990 Int=      0 D2E=      0 Chk=    122 Scr=      1
 Normal termination of Gaussian 16 at Mon Jul 19 16:20:33 2021.
