 Entering Gaussian System, Link 0=/home/artemiy/opt/gaussian/g16/g16
 Input=1,1,1,6,6,6-Hexacyanohexene-3_G4.gjf
 Output=1,1,1,6,6,6-Hexacyanohexene-3_G4.log
 Initial command:
 /home/artemiy/opt/gaussian/g16/l1.exe "/home/artemiy/opt/gaussian/scr/Gau-21597.inp" -scrdir="/home/artemiy/opt/gaussian/scr/"
 Entering Link 1 = /home/artemiy/opt/gaussian/g16/l1.exe PID=     21600.
  
 Copyright (c) 1988,1990,1992,1993,1995,1998,2003,2009,2016,
            Gaussian, Inc.  All Rights Reserved.
  
 This is part of the Gaussian(R) 16 program.  It is based on
 the Gaussian(R) 09 system (copyright 2009, Gaussian, Inc.),
 the Gaussian(R) 03 system (copyright 2003, Gaussian, Inc.),
 the Gaussian(R) 98 system (copyright 1998, Gaussian, Inc.),
 the Gaussian(R) 94 system (copyright 1995, Gaussian, Inc.),
 the Gaussian 92(TM) system (copyright 1992, Gaussian, Inc.),
 the Gaussian 90(TM) system (copyright 1990, Gaussian, Inc.),
 the Gaussian 88(TM) system (copyright 1988, Gaussian, Inc.),
 the Gaussian 86(TM) system (copyright 1986, Carnegie Mellon
 University), and the Gaussian 82(TM) system (copyright 1983,
 Carnegie Mellon University). Gaussian is a federally registered
 trademark of Gaussian, Inc.
  
 This software contains proprietary and confidential information,
 including trade secrets, belonging to Gaussian, Inc.
  
 This software is provided under written license and may be
 used, copied, transmitted, or stored only in accord with that
 written license.
  
 The following legend is applicable only to US Government
 contracts under FAR:
  
                    RESTRICTED RIGHTS LEGEND
  
 Use, reproduction and disclosure by the US Government is
 subject to restrictions as set forth in subparagraphs (a)
 and (c) of the Commercial Computer Software - Restricted
 Rights clause in FAR 52.227-19.
  
 Gaussian, Inc.
 340 Quinnipiac St., Bldg. 40, Wallingford CT 06492
  
  
 ---------------------------------------------------------------
 Warning -- This program may not be used in any manner that
 competes with the business of Gaussian, Inc. or will provide
 assistance to any competitor of Gaussian, Inc.  The licensee
 of this program is prohibited from giving any competitor of
 Gaussian, Inc. access to this program.  By using this program,
 the user acknowledges that Gaussian, Inc. is engaged in the
 business of creating and licensing software in the field of
 computational chemistry and represents and warrants to the
 licensee that it is not a competitor of Gaussian, Inc. and that
 it will not use this program in any manner prohibited above.
 ---------------------------------------------------------------
  

 Cite this work as:
 Gaussian 16, Revision A.03,
 M. J. Frisch, G. W. Trucks, H. B. Schlegel, G. E. Scuseria, 
 M. A. Robb, J. R. Cheeseman, G. Scalmani, V. Barone, 
 G. A. Petersson, H. Nakatsuji, X. Li, M. Caricato, A. V. Marenich, 
 J. Bloino, B. G. Janesko, R. Gomperts, B. Mennucci, H. P. Hratchian, 
 J. V. Ortiz, A. F. Izmaylov, J. L. Sonnenberg, D. Williams-Young, 
 F. Ding, F. Lipparini, F. Egidi, J. Goings, B. Peng, A. Petrone, 
 T. Henderson, D. Ranasinghe, V. G. Zakrzewski, J. Gao, N. Rega, 
 G. Zheng, W. Liang, M. Hada, M. Ehara, K. Toyota, R. Fukuda, 
 J. Hasegawa, M. Ishida, T. Nakajima, Y. Honda, O. Kitao, H. Nakai, 
 T. Vreven, K. Throssell, J. A. Montgomery, Jr., J. E. Peralta, 
 F. Ogliaro, M. J. Bearpark, J. J. Heyd, E. N. Brothers, K. N. Kudin, 
 V. N. Staroverov, T. A. Keith, R. Kobayashi, J. Normand, 
 K. Raghavachari, A. P. Rendell, J. C. Burant, S. S. Iyengar, 
 J. Tomasi, M. Cossi, J. M. Millam, M. Klene, C. Adamo, R. Cammi, 
 J. W. Ochterski, R. L. Martin, K. Morokuma, O. Farkas, 
 J. B. Foresman, and D. J. Fox, Gaussian, Inc., Wallingford CT, 2016.
 
 ******************************************
 Gaussian 16:  ES64L-G16RevA.03 25-Dec-2016
                24-Jun-2022 
 ******************************************
 %mem=100GB
 %nprocshared=10
 Will use up to   10 processors via shared memory.
 -------------
 # g4 geom=gic
 -------------
 1/18=20,19=15,26=3,38=1,145=2/1,3;
 2/9=110,12=2,17=6,18=5,40=1/2;
 3/5=35,7=104,11=2,25=1,30=1,71=1,74=-5/1,2,3;
 4//1;
 5/5=2,38=5/2;
 6/7=2,8=2,9=2,10=2,28=1/1;
 7//1,2,3,16;
 1/18=20,19=15,26=3,145=2/3(2);
 2/9=110/2;
 99//99;
 2/9=110/2;
 3/5=35,7=104,11=2,25=1,30=1,71=1,74=-5/1,2,3;
 4/5=5,16=3,69=1/1;
 5/5=2,38=5/2;
 7//1,2,3,16;
 1/18=20,19=15,26=3,145=2/3(-5);
 2/9=110/2;
 6/7=2,8=2,9=2,10=2,19=2,28=1/1;
 99/9=1/99;
 -------------------
 CAS 10380-69-5
 -------------------
 Symbolic Z-matrix:
 Charge =  0 Multiplicity = 1
 C                     2.49133  -0.0211    0.00878 
 C                     1.93336  -0.14321   1.46874 
 H                     1.96746  -1.20406   1.73722 
 H                     2.62192   0.4026    2.12257 
 C                     1.62673  -0.79907  -0.89374 
 C                     2.49729   1.396    -0.39359 
 C                     3.86374  -0.5534   -0.03624 
 N                     4.96064  -0.99142  -0.01561 
 N                     0.89557  -1.45292  -1.55277 
 N                     2.50091   2.54868  -0.65217 
 C                     0.54165   0.39597   1.53771 
 H                     0.42639   1.47966   1.53405 
 C                    -0.54165  -0.39597   1.53771 
 H                    -0.42639  -1.47966   1.53405 
 C                    -1.93336   0.14321   1.46874 
 H                    -1.96746   1.20406   1.73722 
 H                    -2.62192  -0.4026    2.12257 
 C                    -2.49133   0.0211    0.00878 
 C                    -3.86374   0.5534   -0.03624 
 C                    -1.62673   0.79907  -0.89374 
 C                    -2.49729  -1.396    -0.39359 
 N                    -0.89557   1.45292  -1.55277 
 N                    -2.50091  -2.54868  -0.65217 
 N                    -4.96064   0.99142  -0.01561 
 
 Initializing the GIC definitions file.

 GradGradGradGradGradGradGradGradGradGradGradGradGradGradGradGradGradGrad
 Berny optimization.
 Initialization pass.
                           ----------------------------
                           !    Initial Parameters    !
                           ! (Angstroms and Degrees)  !
 --------------------------                            --------------------------
 ! Name  Definition              Value          Derivative Info.                !
 --------------------------------------------------------------------------------
 ! R1    R(1,2)                  1.5677         estimate D2E/DX2                !
 ! R2    R(1,5)                  1.4722         estimate D2E/DX2                !
 ! R3    R(1,6)                  1.4731         estimate D2E/DX2                !
 ! R4    R(1,7)                  1.4727         estimate D2E/DX2                !
 ! R5    R(2,3)                  1.0948         estimate D2E/DX2                !
 ! R6    R(2,4)                  1.0952         estimate D2E/DX2                !
 ! R7    R(2,11)                 1.4941         estimate D2E/DX2                !
 ! R8    R(5,9)                  1.1817         estimate D2E/DX2                !
 ! R9    R(6,10)                 1.1813         estimate D2E/DX2                !
 ! R10   R(7,8)                  1.1813         estimate D2E/DX2                !
 ! R11   R(11,12)                1.0898         estimate D2E/DX2                !
 ! R12   R(11,13)                1.3419         estimate D2E/DX2                !
 ! R13   R(13,14)                1.0898         estimate D2E/DX2                !
 ! R14   R(13,15)                1.4941         estimate D2E/DX2                !
 ! R15   R(15,16)                1.0948         estimate D2E/DX2                !
 ! R16   R(15,17)                1.0952         estimate D2E/DX2                !
 ! R17   R(15,18)                1.5677         estimate D2E/DX2                !
 ! R18   R(18,19)                1.4727         estimate D2E/DX2                !
 ! R19   R(18,20)                1.4722         estimate D2E/DX2                !
 ! R20   R(18,21)                1.4731         estimate D2E/DX2                !
 ! R21   R(19,24)                1.1813         estimate D2E/DX2                !
 ! R22   R(20,22)                1.1817         estimate D2E/DX2                !
 ! R23   R(21,23)                1.1813         estimate D2E/DX2                !
 ! A1    A(2,1,5)              108.7067         estimate D2E/DX2                !
 ! A2    A(2,1,6)              109.3136         estimate D2E/DX2                !
 ! A3    A(2,1,7)              109.3895         estimate D2E/DX2                !
 ! A4    A(5,1,6)              110.0767         estimate D2E/DX2                !
 ! A5    A(5,1,7)              109.7275         estimate D2E/DX2                !
 ! A6    A(6,1,7)              109.6075         estimate D2E/DX2                !
 ! A7    A(1,2,3)              107.0232         estimate D2E/DX2                !
 ! A8    A(1,2,4)              107.0597         estimate D2E/DX2                !
 ! A9    A(1,2,11)             110.2677         estimate D2E/DX2                !
 ! A10   A(3,2,4)              108.4762         estimate D2E/DX2                !
 ! A11   A(3,2,11)             111.5535         estimate D2E/DX2                !
 ! A12   A(4,2,11)             112.2227         estimate D2E/DX2                !
 ! A13   L(1,5,9,15,-1)        177.1235         estimate D2E/DX2                !
 ! A14   L(1,5,9,15,-2)        182.6625         estimate D2E/DX2                !
 ! A15   L(1,6,10,24,-1)       179.8289         estimate D2E/DX2                !
 ! A16   L(1,6,10,24,-2)       176.789          estimate D2E/DX2                !
 ! A17   L(1,7,8,4,-1)         177.4149         estimate D2E/DX2                !
 ! A18   L(1,7,8,4,-2)         178.6573         estimate D2E/DX2                !
 ! A19   A(2,11,12)            117.2071         estimate D2E/DX2                !
 ! A20   A(2,11,13)            122.6153         estimate D2E/DX2                !
 ! A21   A(12,11,13)           120.0967         estimate D2E/DX2                !
 ! A22   A(11,13,14)           120.0967         estimate D2E/DX2                !
 ! A23   A(11,13,15)           122.6153         estimate D2E/DX2                !
 ! A24   A(14,13,15)           117.2071         estimate D2E/DX2                !
 ! A25   A(13,15,16)           111.5535         estimate D2E/DX2                !
 ! A26   A(13,15,17)           112.2227         estimate D2E/DX2                !
 ! A27   A(13,15,18)           110.2677         estimate D2E/DX2                !
 ! A28   A(16,15,17)           108.4762         estimate D2E/DX2                !
 ! A29   A(16,15,18)           107.0232         estimate D2E/DX2                !
 ! A30   A(17,15,18)           107.0597         estimate D2E/DX2                !
 ! A31   A(15,18,19)           109.3895         estimate D2E/DX2                !
 ! A32   A(15,18,20)           108.7067         estimate D2E/DX2                !
 ! A33   A(15,18,21)           109.3136         estimate D2E/DX2                !
 ! A34   A(19,18,20)           109.7275         estimate D2E/DX2                !
 ! A35   A(19,18,21)           109.6075         estimate D2E/DX2                !
 ! A36   A(20,18,21)           110.0767         estimate D2E/DX2                !
 ! A37   L(18,19,24,17,-1)     177.4149         estimate D2E/DX2                !
 ! A38   L(18,19,24,17,-2)     178.6573         estimate D2E/DX2                !
 ! A39   L(18,20,22,2,-1)      177.1235         estimate D2E/DX2                !
 ! A40   L(18,20,22,2,-2)      182.6625         estimate D2E/DX2                !
 ! A41   L(18,21,23,8,-1)      179.8289         estimate D2E/DX2                !
 ! A42   L(18,21,23,8,-2)      176.789          estimate D2E/DX2                !
 ! D1    D(5,1,2,3)             61.1277         estimate D2E/DX2                !
 ! D2    D(5,1,2,4)            177.2725         estimate D2E/DX2                !
 ! D3    D(5,1,2,11)           -60.3806         estimate D2E/DX2                !
 ! D4    D(6,1,2,3)           -178.693          estimate D2E/DX2                !
 ! D5    D(6,1,2,4)            -62.5482         estimate D2E/DX2                !
 ! D6    D(6,1,2,11)            59.7987         estimate D2E/DX2                !
 ! D7    D(7,1,2,3)            -58.6723         estimate D2E/DX2                !
 ! D8    D(7,1,2,4)             57.4725         estimate D2E/DX2                !
 ! D9    D(7,1,2,11)           179.8194         estimate D2E/DX2                !
 ! D10   D(1,2,11,12)          -76.036          estimate D2E/DX2                !
 ! D11   D(1,2,11,13)          100.691          estimate D2E/DX2                !
 ! D12   D(3,2,11,12)          165.1869         estimate D2E/DX2                !
 ! D13   D(3,2,11,13)          -18.0861         estimate D2E/DX2                !
 ! D14   D(4,2,11,12)           43.2186         estimate D2E/DX2                !
 ! D15   D(4,2,11,13)         -140.0545         estimate D2E/DX2                !
 ! D16   D(2,11,13,14)           2.9192         estimate D2E/DX2                !
 ! D17   D(2,11,13,15)        -173.7162         estimate D2E/DX2                !
 ! D18   D(12,11,13,14)        179.5546         estimate D2E/DX2                !
 ! D19   D(12,11,13,15)          2.9192         estimate D2E/DX2                !
 ! D20   D(11,13,15,16)        -18.0861         estimate D2E/DX2                !
 ! D21   D(11,13,15,17)       -140.0545         estimate D2E/DX2                !
 ! D22   D(11,13,15,18)        100.691          estimate D2E/DX2                !
 ! D23   D(14,13,15,16)        165.1869         estimate D2E/DX2                !
 ! D24   D(14,13,15,17)         43.2186         estimate D2E/DX2                !
 ! D25   D(14,13,15,18)        -76.036          estimate D2E/DX2                !
 ! D26   D(13,15,18,19)        179.8194         estimate D2E/DX2                !
 ! D27   D(13,15,18,20)        -60.3806         estimate D2E/DX2                !
 ! D28   D(13,15,18,21)         59.7987         estimate D2E/DX2                !
 ! D29   D(16,15,18,19)        -58.6723         estimate D2E/DX2                !
 ! D30   D(16,15,18,20)         61.1277         estimate D2E/DX2                !
 ! D31   D(16,15,18,21)       -178.693          estimate D2E/DX2                !
 ! D32   D(17,15,18,19)         57.4725         estimate D2E/DX2                !
 ! D33   D(17,15,18,20)        177.2725         estimate D2E/DX2                !
 ! D34   D(17,15,18,21)        -62.5482         estimate D2E/DX2                !
 --------------------------------------------------------------------------------
 Trust Radius=3.00D-01 FncErr=1.00D-07 GrdErr=1.00D-06 EigMax=2.50D+02 EigMin=1.00D-04
 Number of steps in this run=    109 maximum allowed number of steps=    144.
 GradGradGradGradGradGradGradGradGradGradGradGradGradGradGradGradGradGrad

                          Input orientation:                          
 ---------------------------------------------------------------------
 Center     Atomic      Atomic             Coordinates (Angstroms)
 Number     Number       Type             X           Y           Z
 ---------------------------------------------------------------------
      1          6           0        2.491328   -0.021095    0.008782
      2          6           0        1.933358   -0.143210    1.468738
      3          1           0        1.967464   -1.204055    1.737216
      4          1           0        2.621919    0.402602    2.122565
      5          6           0        1.626727   -0.799066   -0.893738
      6          6           0        2.497293    1.396000   -0.393588
      7          6           0        3.863743   -0.553404   -0.036239
      8          7           0        4.960644   -0.991423   -0.015607
      9          7           0        0.895567   -1.452915   -1.552774
     10          7           0        2.500912    2.548683   -0.652168
     11          6           0        0.541653    0.395967    1.537714
     12          1           0        0.426390    1.479656    1.534049
     13          6           0       -0.541653   -0.395967    1.537714
     14          1           0       -0.426390   -1.479656    1.534049
     15          6           0       -1.933358    0.143210    1.468738
     16          1           0       -1.967464    1.204055    1.737216
     17          1           0       -2.621919   -0.402602    2.122565
     18          6           0       -2.491328    0.021095    0.008782
     19          6           0       -3.863743    0.553404   -0.036239
     20          6           0       -1.626727    0.799066   -0.893738
     21          6           0       -2.497293   -1.396000   -0.393588
     22          7           0       -0.895567    1.452915   -1.552774
     23          7           0       -2.500912   -2.548683   -0.652168
     24          7           0       -4.960644    0.991423   -0.015607
 ---------------------------------------------------------------------
                    Distance matrix (angstroms):
                    1          2          3          4          5
     1  C    0.000000
     2  C    1.567710   0.000000
     3  H    2.159007   1.094822   0.000000
     4  H    2.159780   1.095225   1.777119   0.000000
     5  C    1.472181   2.470923   2.683661   3.395953   0.000000
     6  C    1.473124   2.481018   3.403135   2.708025   2.413783
     7  C    1.472719   2.481854   2.676633   2.667679   2.408297
     8  N    2.653234   3.476666   3.475159   3.461895   3.452987
     9  N    2.652361   3.452806   3.469139   4.464454   1.181711
    10  N    2.653433   3.473708   4.480710   3.509907   3.468426
    11  C    2.512530   1.494092   2.152396   2.160926   2.918467
    12  H    2.973661   2.215606   3.101369   2.515302   3.539425
    13  C    3.417182   2.488840   2.643572   3.314808   3.282730
    14  H    3.600961   2.712704   2.418216   3.630624   3.251560
    15  C    4.662222   3.877310   4.135652   4.609265   4.375315
    16  H    4.936527   4.135652   4.613312   4.674747   4.883915
    17  H    5.546073   4.609265   4.674747   5.305298   5.225539
    18  C    4.982835   4.662222   4.936527   5.546073   4.294832
    19  C    6.381144   6.029644   6.343247   6.837177   5.719243
    20  C    4.294832   4.375315   4.883915   5.225539   3.624774
    21  C    5.190241   4.966730   4.950881   5.980997   4.196906
    22  N    4.010264   4.436211   5.106904   5.194611   3.444955
    23  N    5.634538   5.472412   5.242477   6.530898   4.489646
    24  N    7.520484   7.142684   7.476041   7.900237   6.882617
                    6          7          8          9         10
     6  C    0.000000
     7  C    2.407293   0.000000
     8  N    3.451196   1.181304   0.000000
     9  N    3.467788   3.452400   4.370436   0.000000
    10  N    1.181336   3.443780   4.357504   4.404658   0.000000
    11  C    2.924811   3.796698   4.885196   3.618665   3.642590
    12  H    2.830446   4.291216   5.391394   4.283524   3.197813
    13  C    4.021973   4.680772   5.748273   3.568453   4.766943
    14  H    4.531347   4.661436   5.626717   3.358089   5.438397
    15  C    4.966730   6.029644   7.142684   4.436211   5.472412
    16  H    4.950881   6.343247   7.476041   5.106904   5.242477
    17  H    5.980997   6.837177   7.900237   5.194611   6.530898
    18  C    5.190241   6.381144   7.520484   4.010264   5.634538
    19  C    6.426542   7.806348   8.958612   5.382957   6.698458
    20  C    4.196906   5.719243   6.882617   3.444955   4.489646
    21  C    5.721989   6.426542   7.478461   3.585868   6.372554
    22  N    3.585868   5.382957   6.529386   3.413504   3.680743
    23  N    6.372554   6.698458   7.648862   3.680743   7.141525
    24  N    7.478461   8.958612  10.117491   6.529386   7.648862
                   11         12         13         14         15
    11  C    0.000000
    12  H    1.089808   0.000000
    13  C    1.341906   2.110707   0.000000
    14  H    2.110707   3.079734   1.089808   0.000000
    15  C    2.488840   2.712704   1.494092   2.215606   0.000000
    16  H    2.643572   2.418216   2.152396   3.101369   1.094822
    17  H    3.314808   3.630624   2.160926   2.515302   1.095225
    18  C    3.417182   3.600961   2.512530   2.973661   1.567710
    19  C    4.680772   4.661436   3.796698   4.291216   2.481854
    20  C    3.282730   3.251560   2.918467   3.539425   2.470923
    21  C    4.021973   4.531347   2.924811   2.830446   2.481018
    22  N    3.568453   3.358089   3.618665   4.283524   3.452806
    23  N    4.766943   5.438397   3.642590   3.197813   3.473708
    24  N    5.748273   5.626717   4.885196   5.391394   3.476666
                   16         17         18         19         20
    16  H    0.000000
    17  H    1.777119   0.000000
    18  C    2.159007   2.159780   0.000000
    19  C    2.676633   2.667679   1.472719   0.000000
    20  C    2.683661   3.395953   1.472181   2.408297   0.000000
    21  C    3.403135   2.708025   1.473124   2.407293   2.413783
    22  N    3.469139   4.464454   2.652361   3.452400   1.181711
    23  N    4.480710   3.509907   2.653433   3.443780   3.468426
    24  N    3.475159   3.461895   2.653234   1.181304   3.452987
                   21         22         23         24
    21  C    0.000000
    22  N    3.467788   0.000000
    23  N    1.181336   4.404658   0.000000
    24  N    3.451196   4.370436   4.357504   0.000000
 Stoichiometry    C12H6N6
 Framework group  C2[X(C12H6N6)]
 Deg. of freedom    34
 Full point group                 C2      NOp   2
 Largest Abelian subgroup         C2      NOp   2
 Largest concise Abelian subgroup C2      NOp   2
                         Standard orientation:                         
 ---------------------------------------------------------------------
 Center     Atomic      Atomic             Coordinates (Angstroms)
 Number     Number       Type             X           Y           Z
 ---------------------------------------------------------------------
      1          6           0       -0.020694    2.491331    0.008782
      2          6           0        0.110762    1.935488    1.468738
      3          1           0        1.170886    1.987382    1.737216
      4          1           0       -0.446522    2.614798    2.122565
      5          6           0        0.771669    1.639901   -0.893738
      6          6           0       -1.437690    2.473527   -0.393588
      7          6           0        0.488521    3.872481   -0.036239
      8          7           0        0.908081    4.976575   -0.015607
      9          7           0        1.437690    0.919810   -1.552774
     10          7           0       -2.590271    2.457812   -0.652168
     11          6           0       -0.404996    0.534935    1.537714
     12          1           0       -1.486600    0.401512    1.534049
     13          6           0        0.404996   -0.534935    1.537714
     14          1           0        1.486600   -0.401512    1.534049
     15          6           0       -0.110762   -1.935488    1.468738
     16          1           0       -1.170886   -1.987382    1.737216
     17          1           0        0.446522   -2.614798    2.122565
     18          6           0        0.020694   -2.491331    0.008782
     19          6           0       -0.488521   -3.872481   -0.036239
     20          6           0       -0.771669   -1.639901   -0.893738
     21          6           0        1.437690   -2.473527   -0.393588
     22          7           0       -1.437690   -0.919810   -1.552774
     23          7           0        2.590271   -2.457812   -0.652168
     24          7           0       -0.908081   -4.976575   -0.015607
 ---------------------------------------------------------------------
 Rotational constants (GHZ):           0.8709723           0.2583320           0.2434444
 Standard basis: GTBas3 (6D, 7F)
 There are   294 symmetry adapted cartesian basis functions of A   symmetry.
 There are   294 symmetry adapted cartesian basis functions of B   symmetry.
 There are   267 symmetry adapted basis functions of A   symmetry.
 There are   267 symmetry adapted basis functions of B   symmetry.
   534 basis functions,   834 primitive gaussians,   588 cartesian basis functions
    60 alpha electrons       60 beta electrons
       nuclear repulsion energy      1093.6932319775 Hartrees.
 NAtoms=   24 NActive=   24 NUniq=   12 SFac= 4.00D+00 NAtFMM=   60 NAOKFM=F Big=F
 Integral buffers will be    131072 words long.
 Raffenetti 2 integral format.
 Two-electron integral symmetry is turned on.
 One-electron integrals computed using PRISM.
 NBasis=   534 RedAO= T EigKep=  9.89D-05  NBF=   267   267
 NBsUse=   534 1.00D-06 EigRej= -1.00D+00 NBFU=   267   267
 ExpMin= 1.61D-01 ExpMax= 4.17D+03 ExpMxC= 6.27D+02 IAcc=3 IRadAn=         5 AccDes= 0.00D+00
 Harris functional with IExCor=  402 and IRadAn=       5 diagonalized for initial guess.
 HarFok:  IExCor=  402 AccDes= 0.00D+00 IRadAn=         5 IDoV= 1 UseB2=F ITyADJ=14
 ICtDFT=  3500011 ScaDFX=  1.000000  1.000000  1.000000  1.000000
 FoFCou: FMM=F IPFlag=           0 FMFlag=      100000 FMFlg1=           0
         NFxFlg=           0 DoJE=T BraDBF=F KetDBF=T FulRan=T
         wScrn=  0.000000 ICntrl=       500 IOpCl=  0 I1Cent=   200000004 NGrid=           0
         NMat0=    1 NMatS0=      1 NMatT0=    0 NMatD0=    1 NMtDS0=    0 NMtDT0=    0
 Petite list used in FoFCou.
 Initial guess orbital symmetries:
       Occupied  (A) (B) (B) (A) (A) (B) (A) (B) (A) (B) (A) (B)
                 (B) (A) (B) (A) (B) (A) (A) (B) (A) (B) (A) (B)
                 (A) (B) (A) (B) (A) (B) (B) (A) (A) (B) (B) (A)
                 (A) (B) (A) (B) (A) (A) (B) (A) (B) (B) (A) (A)
                 (B) (A) (B) (A) (A) (B) (A) (B) (A) (B) (B) (A)
       Virtual   (B) (B) (A) (B) (A) (A) (B) (B) (A) (A) (B) (A)
                 (B) (A) (B) (B) (A) (B) (A) (A) (B) (B) (B) (A)
                 (A) (B) (B) (A) (A) (A) (B) (B) (A) (A) (B) (A)
                 (B) (B) (A) (A) (B) (B) (A) (A) (B) (B) (A) (A)
                 (B) (A) (B) (B) (A) (B) (B) (A) (B) (A) (B) (A)
                 (B) (A) (B) (A) (A) (B) (A) (B) (A) (B) (A) (A)
                 (B) (A) (B) (A) (B) (A) (B) (B) (A) (A) (B) (A)
                 (B) (A) (B) (B) (A) (A) (B) (A) (B) (B) (A) (B)
                 (A) (B) (A) (B) (A) (B) (A) (B) (A) (B) (A) (B)
                 (A) (B) (A) (B) (A) (B) (A) (B) (A) (B) (A) (A)
                 (B) (B) (A) (A) (B) (B) (A) (B) (A) (A) (B) (B)
                 (A) (B) (A) (B) (A) (A) (B) (A) (B) (B) (A) (B)
                 (A) (B) (A) (B) (A) (B) (A) (B) (A) (A) (B) (A)
                 (B) (B) (A) (B) (A) (B) (A) (B) (A) (A) (B) (A)
                 (B) (A) (B) (B) (A) (B) (A) (B) (B) (A) (B) (A)
                 (B) (A) (B) (A) (B) (A) (A) (B) (B) (A) (B) (A)
                 (B) (A) (B) (A) (B) (A) (B) (A) (A) (B) (B) (A)
                 (B) (B) (A) (A) (A) (B) (B) (A) (B) (A) (B) (A)
                 (A) (A) (B) (B) (A) (B) (A) (B) (B) (A) (B) (A)
                 (A) (B) (A) (B) (A) (A) (B) (B) (B) (A) (B) (A)
                 (A) (B) (A) (B) (A) (B) (A) (B) (A) (B) (A) (A)
                 (A) (B) (B) (A) (B) (A) (B) (A) (B) (A) (B) (A)
                 (A) (B) (B) (A) (B) (A) (B) (A) (B) (A) (B) (A)
                 (B) (B) (A) (A) (B) (B) (A) (B) (A) (B) (A) (B)
                 (A) (A) (B) (B) (A) (A) (B) (B) (A) (B) (B) (A)
                 (A) (B) (B) (A) (B) (A) (A) (B) (A) (B) (A) (B)
                 (A) (A) (B) (B) (A) (B) (A) (B) (B) (A) (A) (A)
                 (B) (B) (A) (B) (A) (B) (A) (B) (A) (B) (B) (A)
                 (A) (B) (A) (A) (B) (B) (A) (B) (A) (B) (B) (A)
                 (B) (A) (B) (A) (B) (A) (B) (A) (A) (A) (B) (B)
                 (B) (A) (A) (B) (B) (A) (B) (A) (B) (A) (A) (B)
                 (B) (A) (B) (A) (B) (B) (A) (A) (B) (B) (A) (A)
                 (A) (B) (B) (B) (A) (A) (A) (B) (A) (B) (B) (A)
                 (A) (B) (B) (A) (A) (B) (A) (B) (A) (B) (B) (A)
                 (B) (A) (A) (B) (B) (A) (A) (B) (A) (B) (A) (B)
                 (A) (B) (A) (B) (A) (B) (A) (B) (B) (A) (B) (A)
                 (A) (B) (A) (B) (A) (B) (A) (B) (A) (B) (A) (B)
                 (A) (B) (A) (B) (A) (B) (A) (B) (A) (A) (B) (A)
                 (B) (B) (A) (A) (B) (A) (B) (B) (A) (B) (A) (B)
                 (A) (B) (B) (A) (B) (A)
 The electronic state of the initial guess is 1-A.
 Requested convergence on RMS density matrix=1.00D-08 within 128 cycles.
 Requested convergence on MAX density matrix=1.00D-06.
 Requested convergence on             energy=1.00D-06.
 No special actions if energy rises.
 Integral accuracy reduced to 1.0D-05 until final iterations.
 Initial convergence to 1.0D-05 achieved.  Increase integral accuracy.
 SCF Done:  E(RB3LYP) =  -789.233990641     A.U. after   14 cycles
            NFock= 14  Conv=0.36D-08     -V/T= 2.0082

 **********************************************************************

            Population analysis using the SCF density.

 **********************************************************************

 Orbital symmetries:
       Occupied  (B) (A) (A) (B) (A) (B) (B) (A) (B) (A) (B) (A)
                 (B) (A) (A) (B) (A) (B) (A) (B) (A) (B) (A) (B)
                 (A) (B) (A) (B) (A) (B) (A) (B) (A) (B) (B) (A)
                 (A) (B) (B) (A) (A) (A) (B) (A) (B) (B) (A) (A)
                 (B) (B) (A) (A) (B) (A) (B) (A) (A) (B) (B) (A)
       Virtual   (B) (B) (A) (B) (A) (A) (B) (B) (A) (A) (B) (A)
                 (B) (A) (B) (B) (A) (B) (A) (A) (B) (B) (B) (A)
                 (A) (B) (A) (B) (A) (A) (B) (A) (B) (A) (B) (A)
                 (B) (B) (A) (A) (B) (B) (A) (B) (A) (A) (B) (A)
                 (B) (A) (B) (B) (B) (B) (A) (A) (A) (B) (B) (A)
                 (B) (A) (A) (B) (A) (B) (A) (B) (A) (B) (A) (A)
                 (B) (A) (B) (A) (B) (A) (B) (B) (A) (B) (A) (B)
                 (A) (B) (A) (A) (B) (A) (B) (A) (B) (B) (A) (B)
                 (A) (A) (B) (B) (A) (B) (A) (B) (A) (B) (A) (B)
                 (A) (B) (B) (A) (A) (B) (A) (B) (A) (B) (A) (A)
                 (B) (B) (A) (A) (B) (B) (A) (B) (A) (A) (B) (B)
                 (A) (B) (A) (B) (A) (A) (B) (A) (B) (B) (A) (B)
                 (A) (B) (A) (B) (A) (B) (A) (B) (A) (A) (B) (A)
                 (B) (B) (A) (B) (A) (B) (A) (B) (A) (B) (A) (A)
                 (B) (A) (B) (A) (B) (A) (B) (B) (B) (A) (B) (A)
                 (B) (A) (A) (B) (A) (B) (B) (B) (A) (A) (B) (A)
                 (B) (B) (A) (A) (B) (A) (B) (A) (A) (B) (B) (A)
                 (B) (B) (A) (A) (A) (B) (B) (A) (B) (A) (B) (A)
                 (A) (B) (A) (B) (A) (B) (B) (A) (A) (B) (A) (A)
                 (B) (B) (B) (A) (A) (B) (A) (B) (A) (B) (B) (A)
                 (A) (B) (A) (B) (B) (A) (A) (B) (A) (B) (A) (A)
                 (B) (A) (A) (B) (B) (A) (B) (A) (B) (A) (B) (A)
                 (A) (B) (B) (A) (B) (A) (B) (A) (B) (A) (B) (A)
                 (B) (B) (A) (B) (A) (B) (A) (B) (A) (B) (A) (B)
                 (A) (A) (B) (A) (B) (A) (B) (B) (B) (A) (B) (A)
                 (A) (B) (B) (B) (A) (A) (A) (B) (A) (A) (B) (A)
                 (B) (B) (A) (A) (B) (B) (A) (B) (B) (A) (A) (A)
                 (B) (B) (A) (B) (A) (B) (A) (B) (A) (B) (A) (B)
                 (B) (A) (A) (A) (B) (B) (A) (B) (A) (B) (B) (A)
                 (B) (A) (B) (A) (B) (A) (B) (A) (A) (A) (B) (B)
                 (A) (B) (B) (A) (B) (A) (B) (A) (B) (A) (B) (A)
                 (B) (A) (A) (B) (B) (A) (B) (A) (B) (B) (A) (A)
                 (A) (B) (B) (B) (A) (A) (B) (A) (A) (B) (B) (A)
                 (A) (B) (A) (A) (B) (B) (A) (B) (B) (A) (B) (A)
                 (B) (A) (A) (B) (A) (B) (A) (B) (A) (B) (A) (A)
                 (B) (B) (A) (B) (A) (B) (A) (B) (B) (A) (B) (A)
                 (A) (B) (B) (A) (A) (B) (A) (B) (A) (B) (A) (B)
                 (A) (B) (A) (B) (A) (B) (A) (B) (A) (B) (A) (A)
                 (B) (B) (A) (A) (B) (A) (B) (B) (A) (B) (A) (B)
                 (A) (B) (B) (A) (B) (A)
 The electronic state is 1-A.
 Alpha  occ. eigenvalues --  -14.39127 -14.39127 -14.38973 -14.38972 -14.38942
 Alpha  occ. eigenvalues --  -14.38942 -10.36267 -10.36267 -10.28211 -10.28211
 Alpha  occ. eigenvalues --  -10.28072 -10.28072 -10.27996 -10.27996 -10.27320
 Alpha  occ. eigenvalues --  -10.27320 -10.25087 -10.25003  -0.97562  -0.97319
 Alpha  occ. eigenvalues --   -0.94005  -0.93903  -0.93828  -0.93802  -0.90364
 Alpha  occ. eigenvalues --   -0.89518  -0.84538  -0.78069  -0.70994  -0.65423
 Alpha  occ. eigenvalues --   -0.64568  -0.64560  -0.63958  -0.60303  -0.53432
 Alpha  occ. eigenvalues --   -0.52410  -0.50959  -0.50081  -0.44905  -0.44015
 Alpha  occ. eigenvalues --   -0.42142  -0.41614  -0.41503  -0.41454  -0.41051
 Alpha  occ. eigenvalues --   -0.40842  -0.40794  -0.39433  -0.39357  -0.38714
 Alpha  occ. eigenvalues --   -0.38580  -0.37477  -0.37091  -0.37025  -0.36974
 Alpha  occ. eigenvalues --   -0.36653  -0.36600  -0.36427  -0.36079  -0.31648
 Alpha virt. eigenvalues --   -0.07358  -0.05460  -0.05081  -0.05034  -0.04863
 Alpha virt. eigenvalues --   -0.04533  -0.03882  -0.00756  -0.00652  -0.00424
 Alpha virt. eigenvalues --    0.00080   0.03966   0.05028   0.05268   0.05474
 Alpha virt. eigenvalues --    0.06150   0.08837   0.10680   0.10987   0.11193
 Alpha virt. eigenvalues --    0.12776   0.14947   0.15139   0.15781   0.16287
 Alpha virt. eigenvalues --    0.17974   0.18714   0.19976   0.25567   0.29074
 Alpha virt. eigenvalues --    0.29980   0.32331   0.32419   0.33691   0.34033
 Alpha virt. eigenvalues --    0.37032   0.37364   0.40605   0.41096   0.41675
 Alpha virt. eigenvalues --    0.42355   0.44652   0.44961   0.45955   0.46106
 Alpha virt. eigenvalues --    0.46661   0.46722   0.47862   0.48637   0.49767
 Alpha virt. eigenvalues --    0.50066   0.51722   0.53842   0.54146   0.54516
 Alpha virt. eigenvalues --    0.54796   0.56461   0.56520   0.58591   0.58954
 Alpha virt. eigenvalues --    0.59425   0.59772   0.60459   0.60536   0.61619
 Alpha virt. eigenvalues --    0.62390   0.63231   0.63942   0.64306   0.64651
 Alpha virt. eigenvalues --    0.64764   0.66409   0.66866   0.67547   0.67881
 Alpha virt. eigenvalues --    0.68259   0.69173   0.69498   0.69729   0.70390
 Alpha virt. eigenvalues --    0.70695   0.71062   0.71422   0.72447   0.73338
 Alpha virt. eigenvalues --    0.73925   0.73952   0.75078   0.75119   0.76648
 Alpha virt. eigenvalues --    0.77000   0.77479   0.78780   0.78937   0.80938
 Alpha virt. eigenvalues --    0.81199   0.82057   0.82201   0.82400   0.82950
 Alpha virt. eigenvalues --    0.83305   0.83681   0.84337   0.85372   0.86941
 Alpha virt. eigenvalues --    0.87213   0.88695   0.88698   0.89791   0.90294
 Alpha virt. eigenvalues --    0.91767   0.91947   0.92822   0.94809   0.96776
 Alpha virt. eigenvalues --    0.96981   0.98109   0.98878   1.00267   1.01056
 Alpha virt. eigenvalues --    1.02403   1.05961   1.07263   1.08737   1.11049
 Alpha virt. eigenvalues --    1.11738   1.12047   1.16123   1.17080   1.19454
 Alpha virt. eigenvalues --    1.19999   1.22102   1.22309   1.23399   1.24628
 Alpha virt. eigenvalues --    1.26253   1.28378   1.29149   1.30336   1.30425
 Alpha virt. eigenvalues --    1.31000   1.31563   1.32182   1.32824   1.33056
 Alpha virt. eigenvalues --    1.34133   1.34208   1.35441   1.36294   1.37522
 Alpha virt. eigenvalues --    1.38075   1.38895   1.40654   1.41813   1.44291
 Alpha virt. eigenvalues --    1.46236   1.46351   1.46460   1.47525   1.49821
 Alpha virt. eigenvalues --    1.50366   1.53023   1.53885   1.57048   1.57692
 Alpha virt. eigenvalues --    1.60554   1.60590   1.63603   1.63923   1.64193
 Alpha virt. eigenvalues --    1.65123   1.67376   1.67672   1.69231   1.69605
 Alpha virt. eigenvalues --    1.70014   1.75202   1.75965   1.77298   1.79397
 Alpha virt. eigenvalues --    1.82066   1.82262   1.83052   1.83746   1.84105
 Alpha virt. eigenvalues --    1.84389   1.85571   1.85844   1.86053   1.86655
 Alpha virt. eigenvalues --    1.92138   1.94893   1.98591   2.00868   2.01301
 Alpha virt. eigenvalues --    2.03352   2.06715   2.07728   2.15975   2.21258
 Alpha virt. eigenvalues --    2.22228   2.24080   2.27471   2.31287   2.32668
 Alpha virt. eigenvalues --    2.34209   2.35689   2.41562   2.43475   2.45045
 Alpha virt. eigenvalues --    2.50055   2.51773   2.54982   2.58003   2.60623
 Alpha virt. eigenvalues --    2.61700   2.64609   2.66447   2.66972   2.67968
 Alpha virt. eigenvalues --    2.69702   2.70387   2.71045   2.71192   2.72060
 Alpha virt. eigenvalues --    2.72487   2.73556   2.74221   2.74755   2.76750
 Alpha virt. eigenvalues --    2.77617   2.77711   2.78976   2.79352   2.79740
 Alpha virt. eigenvalues --    2.80253   2.81200   2.81239   2.82986   2.83203
 Alpha virt. eigenvalues --    2.83669   2.84048   2.84199   2.84684   2.85925
 Alpha virt. eigenvalues --    2.86089   2.86878   2.91637   2.92170   2.94604
 Alpha virt. eigenvalues --    2.95341   2.98122   2.99776   3.00462   3.02407
 Alpha virt. eigenvalues --    3.02528   3.04184   3.11899   3.12235   3.12927
 Alpha virt. eigenvalues --    3.14431   3.15478   3.16038   3.17666   3.18444
 Alpha virt. eigenvalues --    3.20149   3.20536   3.21171   3.24419   3.24891
 Alpha virt. eigenvalues --    3.27175   3.28573   3.32058   3.34715   3.35490
 Alpha virt. eigenvalues --    3.41876   3.42568   3.43393   3.45359   3.47285
 Alpha virt. eigenvalues --    3.47616   3.48231   3.49281   3.51838   3.53763
 Alpha virt. eigenvalues --    3.56363   3.60903   3.61108   3.61244   3.61624
 Alpha virt. eigenvalues --    3.61763   3.61833   3.61944   3.61994   3.62059
 Alpha virt. eigenvalues --    3.62192   3.62436   3.62492   3.63280   3.63366
 Alpha virt. eigenvalues --    3.63907   3.67357   3.68261   3.69988   3.70186
 Alpha virt. eigenvalues --    3.70344   3.71011   3.73032   3.73522   3.74016
 Alpha virt. eigenvalues --    3.74367   3.76868   3.76981   3.78207   3.78412
 Alpha virt. eigenvalues --    3.80003   3.80243   3.81258   3.82923   3.87403
 Alpha virt. eigenvalues --    3.87864   3.88494   3.89890   3.90335   3.91364
 Alpha virt. eigenvalues --    3.94837   3.95793   3.96826   3.98966   4.02035
 Alpha virt. eigenvalues --    4.05104   4.06406   4.09530   4.09899   4.10693
 Alpha virt. eigenvalues --    4.10887   4.10976   4.11108   4.11787   4.12153
 Alpha virt. eigenvalues --    4.12651   4.12887   4.13386   4.14271   4.14819
 Alpha virt. eigenvalues --    4.15442   4.16253   4.16548   4.18048   4.19333
 Alpha virt. eigenvalues --    4.20912   4.21110   4.21718   4.23691   4.23692
 Alpha virt. eigenvalues --    4.25893   4.26965   4.28534   4.29470   4.29833
 Alpha virt. eigenvalues --    4.31089   4.31187   4.31721   4.32073   4.32886
 Alpha virt. eigenvalues --    4.33537   4.34186   4.35009   4.35024   4.36230
 Alpha virt. eigenvalues --    4.37118   4.37198   4.39147   4.42326   4.44171
 Alpha virt. eigenvalues --    4.45018   4.45658   4.46373   4.46664   4.47758
 Alpha virt. eigenvalues --    4.51744   4.52915   4.54647   4.55504   4.59869
 Alpha virt. eigenvalues --    4.61124   4.62197   4.63888   4.65413   4.68487
 Alpha virt. eigenvalues --    4.70758   4.71165   4.71843   4.74340   4.74946
 Alpha virt. eigenvalues --    4.75098   4.75811   4.75841   4.77282   4.77451
 Alpha virt. eigenvalues --    4.77905   4.79977   4.81914   4.83601   4.86516
 Alpha virt. eigenvalues --    4.86561   4.87223   4.88287   4.91724   4.96468
 Alpha virt. eigenvalues --    4.96858   4.98723   5.00200   5.00537   5.01218
 Alpha virt. eigenvalues --    5.02853   5.07575   5.10915   5.18513   5.19744
 Alpha virt. eigenvalues --    5.19934   5.21772   5.21809   5.22815   5.27928
 Alpha virt. eigenvalues --    5.28612   5.29906   5.30307   5.32139   5.33538
 Alpha virt. eigenvalues --    5.34270   5.34619   5.37171   5.38353   5.38961
 Alpha virt. eigenvalues --    5.39037   5.42429   5.58858   5.65177   5.70793
 Alpha virt. eigenvalues --    5.79324   6.06511   6.10150   6.22511   6.22874
 Alpha virt. eigenvalues --    6.24553   6.25198   6.38893   7.52207   7.64852
 Alpha virt. eigenvalues --   10.25250  10.31982  10.87699  10.89146  10.89889
 Alpha virt. eigenvalues --   10.99079  11.05165  11.33294  11.33979  11.39263
 Alpha virt. eigenvalues --   11.39402  11.41300  11.42640  11.88862  12.04916
 Alpha virt. eigenvalues --   12.23885  13.18793  13.28075  17.45781  17.96501
 Alpha virt. eigenvalues --   18.87292  18.98528  21.87872  22.01494
          Condensed to atoms (all electrons):
               1          2          3          4          5          6
     1  C    4.796905   0.365793  -0.020326  -0.026165   0.385012   0.382861
     2  C    0.365793   4.964979   0.358151   0.361091  -0.035498  -0.036530
     3  H   -0.020326   0.358151   0.551653  -0.028165  -0.006839   0.004576
     4  H   -0.026165   0.361091  -0.028165   0.552052   0.004872  -0.006394
     5  C    0.385012  -0.035498  -0.006839   0.004872   4.437755  -0.058218
     6  C    0.382861  -0.036530   0.004576  -0.006394  -0.058218   4.423633
     7  C    0.394596  -0.038706  -0.000391  -0.000734  -0.031904  -0.028900
     8  N    0.000888  -0.002657   0.000376   0.000335  -0.004365  -0.004081
     9  N   -0.004887  -0.003095   0.000225  -0.000025   0.930972  -0.004043
    10  N   -0.008765  -0.003078  -0.000011   0.000315  -0.004135   0.953970
    11  C   -0.046266   0.408685  -0.020016  -0.018502  -0.002119  -0.001485
    12  H   -0.002543  -0.044621   0.004579  -0.002763  -0.000848   0.007022
    13  C   -0.008610  -0.007359  -0.008629   0.001926   0.008653  -0.000201
    14  H    0.000213  -0.010208   0.005308   0.000058   0.000894   0.000059
    15  C    0.000223   0.003686   0.000094  -0.000186  -0.000528   0.000006
    16  H   -0.000005   0.000094   0.000012   0.000003   0.000003  -0.000006
    17  H   -0.000008  -0.000186   0.000003   0.000006   0.000010  -0.000000
    18  C    0.000025   0.000223  -0.000005  -0.000008  -0.000037   0.000023
    19  C    0.000000   0.000001   0.000000  -0.000000   0.000009   0.000000
    20  C   -0.000037  -0.000528   0.000003   0.000010   0.004610   0.000882
    21  C    0.000023   0.000006  -0.000006  -0.000000   0.000882  -0.000001
    22  N   -0.000167  -0.000019  -0.000001  -0.000004   0.001216   0.002792
    23  N    0.000003  -0.000001  -0.000001  -0.000000   0.000063  -0.000000
    24  N    0.000000   0.000000  -0.000000  -0.000000  -0.000000  -0.000000
               7          8          9         10         11         12
     1  C    0.394596   0.000888  -0.004887  -0.008765  -0.046266  -0.002543
     2  C   -0.038706  -0.002657  -0.003095  -0.003078   0.408685  -0.044621
     3  H   -0.000391   0.000376   0.000225  -0.000011  -0.020016   0.004579
     4  H   -0.000734   0.000335  -0.000025   0.000315  -0.018502  -0.002763
     5  C   -0.031904  -0.004365   0.930972  -0.004135  -0.002119  -0.000848
     6  C   -0.028900  -0.004081  -0.004043   0.953970  -0.001485   0.007022
     7  C    4.418788   0.961704  -0.004290  -0.004517   0.003218  -0.000029
     8  N    0.961704   6.365625  -0.000050  -0.000042   0.000043  -0.000001
     9  N   -0.004290  -0.000050   6.417445   0.000016  -0.003342  -0.000012
    10  N   -0.004517  -0.000042   0.000016   6.390699  -0.000645   0.000761
    11  C    0.003218   0.000043  -0.003342  -0.000645   4.755575   0.369459
    12  H   -0.000029  -0.000001  -0.000012   0.000761   0.369459   0.564979
    13  C    0.000022  -0.000004  -0.000627   0.000086   0.673076  -0.037740
    14  H   -0.000018  -0.000000   0.000189  -0.000001  -0.037740   0.005653
    15  C    0.000001   0.000000  -0.000019  -0.000001  -0.007359  -0.010208
    16  H    0.000000  -0.000000  -0.000001  -0.000001  -0.008629   0.005308
    17  H   -0.000000  -0.000000  -0.000004  -0.000000   0.001926   0.000058
    18  C    0.000000   0.000000  -0.000167   0.000003  -0.008610   0.000213
    19  C    0.000000   0.000000   0.000007  -0.000000   0.000022  -0.000018
    20  C    0.000009  -0.000000   0.001216   0.000063   0.008653   0.000894
    21  C    0.000000  -0.000000   0.002792  -0.000000  -0.000201   0.000059
    22  N    0.000007  -0.000000  -0.001963  -0.000495  -0.000627   0.000189
    23  N   -0.000000   0.000000  -0.000495   0.000000   0.000086  -0.000001
    24  N    0.000000   0.000000  -0.000000   0.000000  -0.000004  -0.000000
              13         14         15         16         17         18
     1  C   -0.008610   0.000213   0.000223  -0.000005  -0.000008   0.000025
     2  C   -0.007359  -0.010208   0.003686   0.000094  -0.000186   0.000223
     3  H   -0.008629   0.005308   0.000094   0.000012   0.000003  -0.000005
     4  H    0.001926   0.000058  -0.000186   0.000003   0.000006  -0.000008
     5  C    0.008653   0.000894  -0.000528   0.000003   0.000010  -0.000037
     6  C   -0.000201   0.000059   0.000006  -0.000006  -0.000000   0.000023
     7  C    0.000022  -0.000018   0.000001   0.000000  -0.000000   0.000000
     8  N   -0.000004  -0.000000   0.000000  -0.000000  -0.000000   0.000000
     9  N   -0.000627   0.000189  -0.000019  -0.000001  -0.000004  -0.000167
    10  N    0.000086  -0.000001  -0.000001  -0.000001  -0.000000   0.000003
    11  C    0.673076  -0.037740  -0.007359  -0.008629   0.001926  -0.008610
    12  H   -0.037740   0.005653  -0.010208   0.005308   0.000058   0.000213
    13  C    4.755575   0.369459   0.408685  -0.020016  -0.018502  -0.046266
    14  H    0.369459   0.564979  -0.044621   0.004579  -0.002763  -0.002543
    15  C    0.408685  -0.044621   4.964979   0.358151   0.361091   0.365793
    16  H   -0.020016   0.004579   0.358151   0.551653  -0.028165  -0.020326
    17  H   -0.018502  -0.002763   0.361091  -0.028165   0.552052  -0.026165
    18  C   -0.046266  -0.002543   0.365793  -0.020326  -0.026165   4.796905
    19  C    0.003218  -0.000029  -0.038706  -0.000391  -0.000734   0.394596
    20  C   -0.002119  -0.000848  -0.035498  -0.006839   0.004872   0.385012
    21  C   -0.001485   0.007022  -0.036530   0.004576  -0.006394   0.382861
    22  N   -0.003342  -0.000012  -0.003095   0.000225  -0.000025  -0.004887
    23  N   -0.000645   0.000761  -0.003078  -0.000011   0.000315  -0.008765
    24  N    0.000043  -0.000001  -0.002657   0.000376   0.000335   0.000888
              19         20         21         22         23         24
     1  C    0.000000  -0.000037   0.000023  -0.000167   0.000003   0.000000
     2  C    0.000001  -0.000528   0.000006  -0.000019  -0.000001   0.000000
     3  H    0.000000   0.000003  -0.000006  -0.000001  -0.000001  -0.000000
     4  H   -0.000000   0.000010  -0.000000  -0.000004  -0.000000  -0.000000
     5  C    0.000009   0.004610   0.000882   0.001216   0.000063  -0.000000
     6  C    0.000000   0.000882  -0.000001   0.002792  -0.000000  -0.000000
     7  C    0.000000   0.000009   0.000000   0.000007  -0.000000   0.000000
     8  N    0.000000  -0.000000  -0.000000  -0.000000   0.000000   0.000000
     9  N    0.000007   0.001216   0.002792  -0.001963  -0.000495  -0.000000
    10  N   -0.000000   0.000063  -0.000000  -0.000495   0.000000   0.000000
    11  C    0.000022   0.008653  -0.000201  -0.000627   0.000086  -0.000004
    12  H   -0.000018   0.000894   0.000059   0.000189  -0.000001  -0.000000
    13  C    0.003218  -0.002119  -0.001485  -0.003342  -0.000645   0.000043
    14  H   -0.000029  -0.000848   0.007022  -0.000012   0.000761  -0.000001
    15  C   -0.038706  -0.035498  -0.036530  -0.003095  -0.003078  -0.002657
    16  H   -0.000391  -0.006839   0.004576   0.000225  -0.000011   0.000376
    17  H   -0.000734   0.004872  -0.006394  -0.000025   0.000315   0.000335
    18  C    0.394596   0.385012   0.382861  -0.004887  -0.008765   0.000888
    19  C    4.418788  -0.031904  -0.028900  -0.004290  -0.004517   0.961704
    20  C   -0.031904   4.437755  -0.058218   0.930972  -0.004135  -0.004365
    21  C   -0.028900  -0.058218   4.423633  -0.004043   0.953970  -0.004081
    22  N   -0.004290   0.930972  -0.004043   6.417445   0.000016  -0.000050
    23  N   -0.004517  -0.004135   0.953970   0.000016   6.390699  -0.000042
    24  N    0.961704  -0.004365  -0.004081  -0.000050  -0.000042   6.365625
 Mulliken charges:
               1
     1  C   -0.208764
     2  C   -0.280222
     3  H    0.159411
     4  H    0.162279
     5  C    0.369541
     6  C    0.364034
     7  C    0.331144
     8  N   -0.317772
     9  N   -0.329839
    10  N   -0.324222
    11  C   -0.065199
    12  H    0.139610
    13  C   -0.065199
    14  H    0.139610
    15  C   -0.280222
    16  H    0.159411
    17  H    0.162279
    18  C   -0.208764
    19  C    0.331144
    20  C    0.369541
    21  C    0.364034
    22  N   -0.329839
    23  N   -0.324222
    24  N   -0.317772
 Sum of Mulliken charges =  -0.00000
 Mulliken charges with hydrogens summed into heavy atoms:
               1
     1  C   -0.208764
     2  C    0.041468
     5  C    0.369541
     6  C    0.364034
     7  C    0.331144
     8  N   -0.317772
     9  N   -0.329839
    10  N   -0.324222
    11  C    0.074411
    13  C    0.074411
    15  C    0.041468
    18  C   -0.208764
    19  C    0.331144
    20  C    0.369541
    21  C    0.364034
    22  N   -0.329839
    23  N   -0.324222
    24  N   -0.317772
 Electronic spatial extent (au):  <R**2>=           4463.0836
 Charge=              0.0000 electrons
 Dipole moment (field-independent basis, Debye):
    X=             -0.0000    Y=              0.0000    Z=              6.0805  Tot=              6.0805
 Quadrupole moment (field-independent basis, Debye-Ang):
   XX=           -118.2845   YY=           -128.5941   ZZ=            -99.6231
   XY=              0.4561   XZ=             -0.0000   YZ=              0.0000
 Traceless Quadrupole moment (field-independent basis, Debye-Ang):
   XX=             -2.7840   YY=            -13.0935   ZZ=             15.8775
   XY=              0.4561   XZ=             -0.0000   YZ=              0.0000
 Octapole moment (field-independent basis, Debye-Ang**2):
  XXX=             -0.0000  YYY=             -0.0000  ZZZ=             15.1320  XYY=              0.0000
  XXY=             -0.0000  XXZ=             27.0264  XZZ=              0.0000  YZZ=              0.0000
  YYZ=             15.4943  XYZ=             -6.7900
 Hexadecapole moment (field-independent basis, Debye-Ang**3):
 XXXX=          -1122.6195 YYYY=          -5745.7026 ZZZZ=           -713.2675 XXXY=            140.4102
 XXXZ=              0.0000 YYYX=           -213.2235 YYYZ=              0.0000 ZZZX=             -0.0000
 ZZZY=             -0.0000 XXYY=          -1038.9735 XXZZ=           -292.5130 YYZZ=           -813.1856
 XXYZ=             -0.0000 YYXZ=             -0.0000 ZZXY=              7.5135
 N-N= 1.093693231978D+03 E-N=-4.018660276412D+03  KE= 7.827984821947D+02
 Symmetry A    KE= 3.941079942626D+02
 Symmetry B    KE= 3.886904879321D+02
 Calling FoFJK, ICntrl=      2127 FMM=F ISym2X=1 I1Cent= 0 IOpClX= 0 NMat=1 NMatS=1 NMatT=0.
 ***** Axes restored to original set *****
 -------------------------------------------------------------------
 Center     Atomic                   Forces (Hartrees/Bohr)
 Number     Number              X              Y              Z
 -------------------------------------------------------------------
      1        6           0.002407626    0.000475458   -0.004297565
      2        6          -0.000294579   -0.001249239    0.007393616
      3        1           0.000105453    0.001547234   -0.000306052
      4        1          -0.000582111   -0.000541052   -0.000797521
      5        6          -0.038570308   -0.037186361   -0.037255408
      6        6           0.001817239    0.062888015   -0.014764246
      7        6           0.059158336   -0.023442572    0.000848352
      8        7          -0.056310723    0.022459523   -0.001090218
      9        7           0.039469681    0.033639324    0.033455344
     10        7           0.000030338   -0.059336125    0.013346139
     11        6          -0.011891237   -0.006743586    0.003789832
     12        1           0.000648081   -0.001858087   -0.000322273
     13        6           0.011891237    0.006743586    0.003789832
     14        1          -0.000648081    0.001858087   -0.000322273
     15        6           0.000294579    0.001249239    0.007393616
     16        1          -0.000105453   -0.001547234   -0.000306052
     17        1           0.000582111    0.000541052   -0.000797521
     18        6          -0.002407626   -0.000475458   -0.004297565
     19        6          -0.059158336    0.023442572    0.000848352
     20        6           0.038570308    0.037186361   -0.037255408
     21        6          -0.001817239   -0.062888015   -0.014764246
     22        7          -0.039469681   -0.033639324    0.033455344
     23        7          -0.000030338    0.059336125    0.013346139
     24        7           0.056310723   -0.022459523   -0.001090218
 -------------------------------------------------------------------
 Cartesian Forces:  Max     0.062888015 RMS     0.025797583

 GradGradGradGradGradGradGradGradGradGradGradGradGradGradGradGradGradGrad
 Berny optimization.
 FormGI is forming the generalized inverse of G from B-inverse, IUseBI=4.
 Internal  Forces:  Max     0.061691567 RMS     0.015582067
 Search for a local minimum.
 Step number   1 out of a maximum of  109
 All quantities printed in internal units (Hartrees-Bohrs-Radians)
 Mixed Optimization -- RFO/linear search
 Second derivative matrix not updated -- first step.
 ITU=  0
     Eigenvalues ---    0.00230   0.00230   0.00844   0.00844   0.01681
     Eigenvalues ---    0.01681   0.02857   0.04435   0.04435   0.04579
     Eigenvalues ---    0.04579   0.04579   0.04579   0.04584   0.04584
     Eigenvalues ---    0.04584   0.04584   0.04585   0.04585   0.04585
     Eigenvalues ---    0.04585   0.05645   0.05645   0.08818   0.08818
     Eigenvalues ---    0.08897   0.08897   0.08989   0.08989   0.12537
     Eigenvalues ---    0.12537   0.15983   0.15983   0.21964   0.21964
     Eigenvalues ---    0.22004   0.22004   0.25000   0.25000   0.25000
     Eigenvalues ---    0.25000   0.25000   0.25000   0.26199   0.26199
     Eigenvalues ---    0.33005   0.33005   0.34216   0.34216   0.34261
     Eigenvalues ---    0.34261   0.34835   0.34835   0.35369   0.35369
     Eigenvalues ---    0.35417   0.35417   0.35480   0.35480   0.56780
     Eigenvalues ---    1.14577   1.14577   1.14790   1.14790   1.14808
     Eigenvalues ---    1.14808
 RFO step:  Lambda=-2.74615180D-02 EMin= 2.30000000D-03
 Linear search not attempted -- first point.
 Iteration  1 RMS(Cart)=  0.25497018 RMS(Int)=  0.00873523
 Iteration  2 RMS(Cart)=  0.01747859 RMS(Int)=  0.00026350
 Iteration  3 RMS(Cart)=  0.00012850 RMS(Int)=  0.00026144
 Iteration  4 RMS(Cart)=  0.00000004 RMS(Int)=  0.00026144
 ClnCor:  largest displacement from symmetrization is 4.48D-11 for atom    24.
 Variable       Old X    -DE/DX   Delta X   Delta X   Delta X     New X
                                 (Linear)    (Quad)   (Total)
    R1        2.96254   0.01191   0.00000   0.04114   0.04114   3.00368
    R2        2.78202   0.00368   0.00000   0.00962   0.00962   2.79164
    R3        2.78380   0.00381   0.00000   0.01000   0.01000   2.79380
    R4        2.78304   0.00302   0.00000   0.00790   0.00790   2.79094
    R5        2.06891  -0.00157   0.00000  -0.00424  -0.00424   2.06467
    R6        2.06967  -0.00111   0.00000  -0.00301  -0.00301   2.06667
    R7        2.82343   0.00715   0.00000   0.01999   0.01999   2.84342
    R8        2.23311  -0.06169   0.00000  -0.05258  -0.05258   2.18053
    R9        2.23240  -0.06082   0.00000  -0.05174  -0.05174   2.18066
   R10        2.23234  -0.06063   0.00000  -0.05158  -0.05158   2.18076
   R11        2.05944  -0.00192   0.00000  -0.00510  -0.00510   2.05434
   R12        2.53583  -0.00874   0.00000  -0.01469  -0.01469   2.52114
   R13        2.05944  -0.00192   0.00000  -0.00510  -0.00510   2.05434
   R14        2.82343   0.00715   0.00000   0.01999   0.01999   2.84342
   R15        2.06891  -0.00157   0.00000  -0.00424  -0.00424   2.06467
   R16        2.06967  -0.00111   0.00000  -0.00301  -0.00301   2.06667
   R17        2.96254   0.01191   0.00000   0.04114   0.04114   3.00368
   R18        2.78304   0.00302   0.00000   0.00790   0.00790   2.79094
   R19        2.78202   0.00368   0.00000   0.00962   0.00962   2.79164
   R20        2.78380   0.00381   0.00000   0.01000   0.01000   2.79380
   R21        2.23234  -0.06063   0.00000  -0.05158  -0.05158   2.18076
   R22        2.23311  -0.06169   0.00000  -0.05258  -0.05258   2.18053
   R23        2.23240  -0.06082   0.00000  -0.05174  -0.05174   2.18066
    A1        1.89729   0.00749   0.00000   0.03056   0.03036   1.92765
    A2        1.90788   0.00164   0.00000   0.00855   0.00827   1.91615
    A3        1.90921  -0.00219   0.00000  -0.01413  -0.01406   1.89515
    A4        1.92120  -0.00133   0.00000   0.00788   0.00735   1.92855
    A5        1.91511  -0.00401   0.00000  -0.01994  -0.01979   1.89532
    A6        1.91301  -0.00152   0.00000  -0.01263  -0.01264   1.90038
    A7        1.86791  -0.00387   0.00000  -0.00561  -0.00630   1.86161
    A8        1.86854  -0.00564   0.00000  -0.02711  -0.02673   1.84182
    A9        1.92453   0.01578   0.00000   0.06797   0.06785   1.99238
   A10        1.89327   0.00200   0.00000  -0.00584  -0.00622   1.88705
   A11        1.94698  -0.00349   0.00000  -0.00421  -0.00498   1.94200
   A12        1.95866  -0.00498   0.00000  -0.02604  -0.02566   1.93300
   A13        3.09139   0.00376   0.00000   0.05128   0.05128   3.14267
   A14        3.18806   0.00015   0.00000   0.00207   0.00207   3.19014
   A15        3.13861   0.00048   0.00000   0.00657   0.00657   3.14518
   A16        3.08555  -0.00009   0.00000  -0.00129  -0.00129   3.08426
   A17        3.09647   0.00008   0.00000   0.00103   0.00103   3.09751
   A18        3.11816  -0.00004   0.00000  -0.00051  -0.00051   3.11765
   A19        2.04565  -0.00289   0.00000  -0.01137  -0.01191   2.03374
   A20        2.14004   0.00512   0.00000   0.02127   0.02073   2.16077
   A21        2.09608  -0.00209   0.00000  -0.00688  -0.00741   2.08867
   A22        2.09608  -0.00209   0.00000  -0.00688  -0.00741   2.08867
   A23        2.14004   0.00512   0.00000   0.02127   0.02073   2.16077
   A24        2.04565  -0.00289   0.00000  -0.01137  -0.01191   2.03374
   A25        1.94698  -0.00349   0.00000  -0.00421  -0.00498   1.94200
   A26        1.95866  -0.00498   0.00000  -0.02604  -0.02566   1.93300
   A27        1.92453   0.01578   0.00000   0.06797   0.06785   1.99238
   A28        1.89327   0.00200   0.00000  -0.00584  -0.00622   1.88705
   A29        1.86791  -0.00387   0.00000  -0.00561  -0.00630   1.86161
   A30        1.86854  -0.00564   0.00000  -0.02711  -0.02673   1.84182
   A31        1.90921  -0.00219   0.00000  -0.01413  -0.01406   1.89515
   A32        1.89729   0.00749   0.00000   0.03056   0.03036   1.92765
   A33        1.90788   0.00164   0.00000   0.00855   0.00827   1.91615
   A34        1.91511  -0.00401   0.00000  -0.01994  -0.01979   1.89532
   A35        1.91301  -0.00152   0.00000  -0.01263  -0.01264   1.90038
   A36        1.92120  -0.00133   0.00000   0.00788   0.00735   1.92855
   A37        3.09647   0.00008   0.00000   0.00103   0.00103   3.09751
   A38        3.11816  -0.00004   0.00000  -0.00051  -0.00051   3.11765
   A39        3.09139   0.00376   0.00000   0.05128   0.05128   3.14267
   A40        3.18806   0.00015   0.00000   0.00207   0.00207   3.19014
   A41        3.13861   0.00048   0.00000   0.00657   0.00657   3.14518
   A42        3.08555  -0.00009   0.00000  -0.00129  -0.00129   3.08426
    D1        1.06688  -0.00076   0.00000  -0.01666  -0.01677   1.05011
    D2        3.09399  -0.00313   0.00000  -0.03950  -0.03953   3.05446
    D3       -1.05384  -0.00335   0.00000  -0.04785  -0.04825  -1.10209
    D4       -3.11878   0.00311   0.00000   0.01642   0.01662  -3.10216
    D5       -1.09167   0.00075   0.00000  -0.00642  -0.00614  -1.09781
    D6        1.04369   0.00052   0.00000  -0.01478  -0.01485   1.02883
    D7       -1.02402   0.00092   0.00000  -0.00241  -0.00230  -1.02632
    D8        1.00308  -0.00144   0.00000  -0.02525  -0.02506   0.97802
    D9        3.13844  -0.00167   0.00000  -0.03360  -0.03378   3.10467
   D10       -1.32708   0.00028   0.00000   0.00104   0.00130  -1.32578
   D11        1.75739   0.00298   0.00000   0.06173   0.06194   1.81933
   D12        2.88306  -0.00296   0.00000  -0.03367  -0.03370   2.84936
   D13       -0.31566  -0.00026   0.00000   0.02702   0.02694  -0.28872
   D14        0.75431   0.00057   0.00000  -0.00426  -0.00441   0.74989
   D15       -2.44441   0.00327   0.00000   0.05643   0.05623  -2.38818
   D16        0.05095  -0.00263   0.00000  -0.04694  -0.04694   0.00401
   D17       -3.03192  -0.00539   0.00000  -0.10922  -0.10928  -3.14120
   D18        3.13382   0.00013   0.00000   0.01534   0.01540  -3.13396
   D19        0.05095  -0.00263   0.00000  -0.04694  -0.04694   0.00401
   D20       -0.31566  -0.00026   0.00000   0.02702   0.02694  -0.28872
   D21       -2.44441   0.00327   0.00000   0.05643   0.05623  -2.38818
   D22        1.75739   0.00298   0.00000   0.06173   0.06194   1.81933
   D23        2.88306  -0.00296   0.00000  -0.03367  -0.03370   2.84936
   D24        0.75431   0.00057   0.00000  -0.00426  -0.00441   0.74989
   D25       -1.32708   0.00028   0.00000   0.00104   0.00130  -1.32578
   D26        3.13844  -0.00167   0.00000  -0.03360  -0.03378   3.10467
   D27       -1.05384  -0.00335   0.00000  -0.04785  -0.04825  -1.10209
   D28        1.04369   0.00052   0.00000  -0.01478  -0.01485   1.02883
   D29       -1.02402   0.00092   0.00000  -0.00241  -0.00230  -1.02632
   D30        1.06688  -0.00076   0.00000  -0.01666  -0.01677   1.05011
   D31       -3.11878   0.00311   0.00000   0.01642   0.01662  -3.10216
   D32        1.00308  -0.00144   0.00000  -0.02525  -0.02506   0.97802
   D33        3.09399  -0.00313   0.00000  -0.03950  -0.03953   3.05446
   D34       -1.09167   0.00075   0.00000  -0.00642  -0.00614  -1.09781
         Item               Value     Threshold  Converged?
 Maximum Force            0.061692     0.000450     NO 
 RMS     Force            0.015582     0.000300     NO 
 Maximum Displacement     1.051688     0.001800     NO 
 RMS     Displacement     0.262961     0.001200     NO 
 Predicted change in Energy=-1.499512D-02
 GradGradGradGradGradGradGradGradGradGradGradGradGradGradGradGradGradGrad

                          Input orientation:                          
 ---------------------------------------------------------------------
 Center     Atomic      Atomic             Coordinates (Angstroms)
 Number     Number       Type             X           Y           Z
 ---------------------------------------------------------------------
      1          6           0        2.684936   -0.044849    0.023670
      2          6           0        1.950387   -0.147691    1.429483
      3          1           0        1.974443   -1.200879    1.719207
      4          1           0        2.577528    0.411953    2.129142
      5          6           0        1.987399   -0.869009   -0.984561
      6          6           0        2.739844    1.367400   -0.410204
      7          6           0        4.063625   -0.552428    0.174742
      8          7           0        5.129715   -0.959498    0.346446
      9          7           0        1.452096   -1.557543   -1.740091
     10          7           0        2.792002    2.486712   -0.685939
     11          6           0        0.543717    0.386457    1.429725
     12          1           0        0.435143    1.468126    1.433328
     13          6           0       -0.543717   -0.386457    1.429725
     14          1           0       -0.435143   -1.468126    1.433328
     15          6           0       -1.950387    0.147691    1.429483
     16          1           0       -1.974443    1.200879    1.719207
     17          1           0       -2.577528   -0.411953    2.129142
     18          6           0       -2.684936    0.044849    0.023670
     19          6           0       -4.063625    0.552428    0.174742
     20          6           0       -1.987399    0.869009   -0.984561
     21          6           0       -2.739844   -1.367400   -0.410204
     22          7           0       -1.452096    1.557543   -1.740091
     23          7           0       -2.792002   -2.486712   -0.685939
     24          7           0       -5.129715    0.959498    0.346446
 ---------------------------------------------------------------------
                    Distance matrix (angstroms):
                    1          2          3          4          5
     1  C    0.000000
     2  C    1.589480   0.000000
     3  H    2.171647   1.092576   0.000000
     4  H    2.157131   1.093632   1.770024   0.000000
     5  C    1.477271   2.519777   2.724090   3.418225   0.000000
     6  C    1.478415   2.510616   3.422907   2.717997   2.428495
     7  C    1.476903   2.490774   2.677786   2.637838   2.398942
     8  N    2.630154   3.455448   3.449417   3.401843   3.413783
     9  N    2.630397   3.504593   3.516646   4.485140   1.153886
    10  N    2.631314   3.481868   4.477886   3.503614   3.463731
    11  C    2.597659   1.504671   2.156481   2.150866   3.080453
    12  H    3.055781   2.215141   3.094311   2.487866   3.703767
    13  C    3.538062   2.505507   2.662370   3.296789   3.531031
    14  H    3.707795   2.726594   2.441158   3.618707   3.474743
    15  C    4.847639   3.911942   4.160153   4.589268   4.729423
    16  H    5.112386   4.160153   4.621920   4.637984   5.224078
    17  H    5.679904   4.589268   4.637984   5.220482   5.544602
    18  C    5.370621   4.847639   5.112386   5.679904   4.866454
    19  C    6.776624   6.183274   6.474389   6.924184   6.322922
    20  C    4.866454   4.729423   5.224078   5.544602   4.338170
    21  C    5.600503   5.183668   5.175580   6.155390   4.788017
    22  N    4.774259   4.952869   5.596142   5.702738   4.276577
    23  N    6.038468   5.695286   5.491548   6.720030   5.054583
    24  N    7.885535   7.247529   7.551209   7.929654   7.467819
                    6          7          8          9         10
     6  C    0.000000
     7  C    2.404225   0.000000
     8  N    3.420300   1.154009   0.000000
     9  N    3.461530   3.390711   4.270383   0.000000
    10  N    1.153954   3.405021   4.290348   4.388917   0.000000
    11  C    3.028294   3.853081   4.900659   3.827796   3.733884
    12  H    2.953034   4.339650   5.395709   4.501051   3.329204
    13  C    4.152485   4.778088   5.804283   3.924595   4.884482
    14  H    4.638897   4.760404   5.692772   3.693272   5.526889
    15  C    5.183668   6.183274   7.247529   4.952869   5.695286
    16  H    5.175580   6.474389   7.551209   5.596142   5.491548
    17  H    6.155390   6.924184   7.929654   5.702738   6.720030
    18  C    5.600503   6.776624   7.885535   4.774259   6.038468
    19  C    6.877029   8.202005   9.318417   6.208200   7.175085
    20  C    4.788017   6.322922   7.467819   4.276577   5.054583
    21  C    6.124225   6.877029   7.916367   4.401945   6.747707
    22  N    4.401945   6.208200   7.349107   4.258885   4.470678
    23  N    6.747707   7.175085   8.133376   4.470678   7.477704
    24  N    7.916367   9.318417  10.437358   7.349107   8.133376
                   11         12         13         14         15
    11  C    0.000000
    12  H    1.087111   0.000000
    13  C    1.334132   2.097060   0.000000
    14  H    2.097060   3.062511   1.087111   0.000000
    15  C    2.505507   2.726594   1.504671   2.215141   0.000000
    16  H    2.662370   2.441158   2.156481   3.094311   1.092576
    17  H    3.296789   3.618707   2.150866   2.487866   1.093632
    18  C    3.538062   3.707795   2.597659   3.055781   1.589480
    19  C    4.778088   4.760404   3.853081   4.339650   2.490774
    20  C    3.531031   3.474743   3.080453   3.703767   2.519777
    21  C    4.152485   4.638897   3.028294   2.953034   2.510616
    22  N    3.924595   3.693272   3.827796   4.501051   3.504593
    23  N    4.884482   5.526889   3.733884   3.329204   3.481868
    24  N    5.804283   5.692772   4.900659   5.395709   3.455448
                   16         17         18         19         20
    16  H    0.000000
    17  H    1.770024   0.000000
    18  C    2.171647   2.157131   0.000000
    19  C    2.677786   2.637838   1.476903   0.000000
    20  C    2.724090   3.418225   1.477271   2.398942   0.000000
    21  C    3.422907   2.717997   1.478415   2.404225   2.428495
    22  N    3.516646   4.485140   2.630397   3.390711   1.153886
    23  N    4.477886   3.503614   2.631314   3.405021   3.463731
    24  N    3.449417   3.401843   2.630154   1.154009   3.413783
                   21         22         23         24
    21  C    0.000000
    22  N    3.461530   0.000000
    23  N    1.153954   4.388917   0.000000
    24  N    3.420300   4.270383   4.290348   0.000000
 Stoichiometry    C12H6N6
 Framework group  C2[X(C12H6N6)]
 Deg. of freedom    34
 Full point group                 C2      NOp   2
 Largest Abelian subgroup         C2      NOp   2
 Largest concise Abelian subgroup C2      NOp   2
                         Standard orientation:                         
 ---------------------------------------------------------------------
 Center     Atomic      Atomic             Coordinates (Angstroms)
 Number     Number       Type             X           Y           Z
 ---------------------------------------------------------------------
      1          6           0       -0.032455    2.685114    0.011975
      2          6           0        0.091488    1.953830    1.417787
      3          1           0        1.143547    2.008192    1.707512
      4          1           0       -0.485975    2.564602    2.117447
      5          6           0        0.811442    2.011589   -0.996256
      6          6           0       -1.445700    2.699349   -0.421899
      7          6           0        0.435228    4.077842    0.163047
      8          7           0        0.811442    5.155208    0.334750
      9          7           0        1.515100    1.496328   -1.751786
     10          7           0       -2.566049    2.719266   -0.697634
     11          6           0       -0.401948    0.532368    1.418030
     12          1           0       -1.480044    0.392703    1.421633
     13          6           0        0.401948   -0.532368    1.418030
     14          1           0        1.480044   -0.392703    1.421633
     15          6           0       -0.091488   -1.953830    1.417787
     16          1           0       -1.143547   -2.008192    1.707512
     17          1           0        0.485975   -2.564602    2.117447
     18          6           0        0.032455   -2.685114    0.011975
     19          6           0       -0.435228   -4.077842    0.163047
     20          6           0       -0.811442   -2.011589   -0.996256
     21          6           0        1.445700   -2.699349   -0.421899
     22          7           0       -1.515100   -1.496328   -1.751786
     23          7           0        2.566049   -2.719266   -0.697634
     24          7           0       -0.811442   -5.155208    0.334750
 ---------------------------------------------------------------------
 Rotational constants (GHZ):           0.8490221           0.2271056           0.2171239
 Standard basis: GTBas3 (6D, 7F)
 There are   294 symmetry adapted cartesian basis functions of A   symmetry.
 There are   294 symmetry adapted cartesian basis functions of B   symmetry.
 There are   267 symmetry adapted basis functions of A   symmetry.
 There are   267 symmetry adapted basis functions of B   symmetry.
   534 basis functions,   834 primitive gaussians,   588 cartesian basis functions
    60 alpha electrons       60 beta electrons
       nuclear repulsion energy      1063.6173264026 Hartrees.
 NAtoms=   24 NActive=   24 NUniq=   12 SFac= 4.00D+00 NAtFMM=   60 NAOKFM=F Big=F
 Integral buffers will be    131072 words long.
 Raffenetti 2 integral format.
 Two-electron integral symmetry is turned on.
 One-electron integrals computed using PRISM.
 NBasis=   534 RedAO= T EigKep=  9.64D-05  NBF=   267   267
 NBsUse=   534 1.00D-06 EigRej= -1.00D+00 NBFU=   267   267
 Initial guess from the checkpoint file:  "/home/artemiy/opt/gaussian/scr/Gau-21600.chk"
 B after Tr=    -0.000000    0.000000    0.000000
         Rot=    0.999982   -0.000000    0.000000   -0.005932 Ang=  -0.68 deg.
 Initial guess orbital symmetries:
       Occupied  (B) (A) (A) (B) (A) (B) (B) (A) (B) (A) (B) (A)
                 (B) (A) (A) (B) (A) (B) (A) (B) (A) (B) (A) (B)
                 (A) (B) (A) (B) (A) (B) (A) (B) (A) (B) (B) (A)
                 (A) (B) (B) (A) (A) (A) (B) (A) (B) (B) (A) (A)
                 (B) (B) (A) (A) (B) (A) (B) (A) (A) (B) (B) (A)
       Virtual   (B) (B) (A) (B) (A) (A) (B) (B) (A) (A) (B) (A)
                 (B) (A) (B) (B) (A) (B) (A) (A) (B) (B) (B) (A)
                 (A) (B) (A) (B) (A) (A) (B) (A) (B) (A) (B) (A)
                 (B) (B) (A) (A) (B) (B) (A) (B) (A) (A) (B) (A)
                 (B) (A) (B) (B) (B) (B) (A) (A) (A) (B) (B) (A)
                 (B) (A) (A) (B) (A) (B) (A) (B) (A) (B) (A) (A)
                 (B) (A) (B) (A) (B) (A) (B) (B) (A) (B) (A) (B)
                 (A) (B) (A) (A) (B) (A) (B) (A) (B) (B) (A) (B)
                 (A) (A) (B) (B) (A) (B) (A) (B) (A) (B) (A) (B)
                 (A) (B) (B) (A) (A) (B) (A) (B) (A) (B) (A) (A)
                 (B) (B) (A) (A) (B) (B) (A) (B) (A) (A) (B) (B)
                 (A) (B) (A) (B) (A) (A) (B) (A) (B) (B) (A) (B)
                 (A) (B) (A) (B) (A) (B) (A) (B) (A) (A) (B) (A)
                 (B) (B) (A) (B) (A) (B) (A) (B) (A) (B) (A) (A)
                 (B) (A) (B) (A) (B) (A) (B) (B) (B) (A) (B) (A)
                 (B) (A) (A) (B) (A) (B) (B) (B) (A) (A) (B) (A)
                 (B) (B) (A) (A) (B) (A) (B) (A) (A) (B) (B) (A)
                 (B) (B) (A) (A) (A) (B) (B) (A) (B) (A) (B) (A)
                 (A) (B) (A) (B) (A) (B) (B) (A) (A) (B) (A) (A)
                 (B) (B) (B) (A) (A) (B) (A) (B) (A) (B) (B) (A)
                 (A) (B) (A) (B) (B) (A) (A) (B) (A) (B) (A) (A)
                 (B) (A) (A) (B) (B) (A) (B) (A) (B) (A) (B) (A)
                 (A) (B) (B) (A) (B) (A) (B) (A) (B) (A) (B) (A)
                 (B) (B) (A) (B) (A) (B) (A) (B) (A) (B) (A) (B)
                 (A) (A) (B) (A) (B) (A) (B) (B) (B) (A) (B) (A)
                 (A) (B) (B) (B) (A) (A) (A) (B) (A) (A) (B) (A)
                 (B) (B) (A) (A) (B) (B) (A) (B) (B) (A) (A) (A)
                 (B) (B) (A) (B) (A) (B) (A) (B) (A) (B) (A) (B)
                 (B) (A) (A) (A) (B) (B) (A) (B) (A) (B) (B) (A)
                 (B) (A) (B) (A) (B) (A) (B) (A) (A) (A) (B) (B)
                 (A) (B) (B) (A) (B) (A) (B) (A) (B) (A) (B) (A)
                 (B) (A) (A) (B) (B) (A) (B) (A) (B) (B) (A) (A)
                 (A) (B) (B) (B) (A) (A) (B) (A) (A) (B) (B) (A)
                 (A) (B) (A) (A) (B) (B) (A) (B) (B) (A) (B) (A)
                 (B) (A) (A) (B) (A) (B) (A) (B) (A) (B) (A) (A)
                 (B) (B) (A) (B) (A) (B) (A) (B) (B) (A) (B) (A)
                 (A) (B) (B) (A) (A) (B) (A) (B) (A) (B) (A) (B)
                 (A) (B) (A) (B) (A) (B) (A) (B) (A) (B) (A) (A)
                 (B) (B) (A) (A) (B) (A) (B) (B) (A) (B) (A) (B)
                 (A) (B) (B) (A) (B) (A)
 ExpMin= 1.61D-01 ExpMax= 4.17D+03 ExpMxC= 6.27D+02 IAcc=2 IRadAn=         4 AccDes= 0.00D+00
 Harris functional with IExCor=  402 and IRadAn=       4 diagonalized for initial guess.
 HarFok:  IExCor=  402 AccDes= 0.00D+00 IRadAn=         4 IDoV= 1 UseB2=F ITyADJ=14
 ICtDFT=  3500011 ScaDFX=  1.000000  1.000000  1.000000  1.000000
 FoFCou: FMM=F IPFlag=           0 FMFlag=      100000 FMFlg1=           0
         NFxFlg=           0 DoJE=T BraDBF=F KetDBF=T FulRan=T
         wScrn=  0.000000 ICntrl=       500 IOpCl=  0 I1Cent=   200000004 NGrid=           0
         NMat0=    1 NMatS0=      1 NMatT0=    0 NMatD0=    1 NMtDS0=    0 NMtDT0=    0
 Petite list used in FoFCou.
 Requested convergence on RMS density matrix=1.00D-08 within 128 cycles.
 Requested convergence on MAX density matrix=1.00D-06.
 Requested convergence on             energy=1.00D-06.
 No special actions if energy rises.
 Integral accuracy reduced to 1.0D-05 until final iterations.
 Initial convergence to 1.0D-05 achieved.  Increase integral accuracy.
 SCF Done:  E(RB3LYP) =  -789.245607539     A.U. after   14 cycles
            NFock= 14  Conv=0.78D-08     -V/T= 2.0074
 Calling FoFJK, ICntrl=      2127 FMM=F ISym2X=1 I1Cent= 0 IOpClX= 0 NMat=1 NMatS=1 NMatT=0.
 ***** Axes restored to original set *****
 -------------------------------------------------------------------
 Center     Atomic                   Forces (Hartrees/Bohr)
 Number     Number              X              Y              Z
 -------------------------------------------------------------------
      1        6          -0.001894574    0.001235141   -0.000323602
      2        6          -0.000835743   -0.000111350    0.000569691
      3        1           0.000065387   -0.000110026   -0.000719890
      4        1           0.000013465   -0.000256508    0.000475094
      5        6           0.000045294   -0.000038027    0.000759136
      6        6           0.000029653   -0.000163179    0.000676341
      7        6           0.000664206   -0.000370369    0.001479325
      8        7          -0.000505255    0.000231773   -0.000267823
      9        7          -0.000881441    0.000886792    0.000408422
     10        7          -0.000662991   -0.000548424   -0.000118288
     11        6           0.000034304   -0.000838273   -0.002094338
     12        1           0.000667520    0.000664604   -0.000844069
     13        6          -0.000034304    0.000838273   -0.002094338
     14        1          -0.000667520   -0.000664604   -0.000844069
     15        6           0.000835743    0.000111350    0.000569691
     16        1          -0.000065387    0.000110026   -0.000719890
     17        1          -0.000013465    0.000256508    0.000475094
     18        6           0.001894574   -0.001235141   -0.000323602
     19        6          -0.000664206    0.000370369    0.001479325
     20        6          -0.000045294    0.000038027    0.000759136
     21        6          -0.000029653    0.000163179    0.000676341
     22        7           0.000881441   -0.000886792    0.000408422
     23        7           0.000662991    0.000548424   -0.000118288
     24        7           0.000505255   -0.000231773   -0.000267823
 -------------------------------------------------------------------
 Cartesian Forces:  Max     0.002094338 RMS     0.000754026

 GradGradGradGradGradGradGradGradGradGradGradGradGradGradGradGradGradGrad
 Berny optimization.
 Using GEDIIS/GDIIS optimizer.
 FormGI is forming the generalized inverse of G from B-inverse, IUseBI=4.
 Internal  Forces:  Max     0.006199643 RMS     0.001613143
 Search for a local minimum.
 Step number   2 out of a maximum of  109
 All quantities printed in internal units (Hartrees-Bohrs-Radians)
 Mixed Optimization -- RFO/linear search
 Update second derivatives using D2CorX and points    1    2
 DE= -1.16D-02 DEPred=-1.50D-02 R= 7.75D-01
 TightC=F SS=  1.41D+00  RLast= 3.01D-01 DXNew= 5.0454D-01 9.0443D-01
 Trust test= 7.75D-01 RLast= 3.01D-01 DXMaxT set to 5.05D-01
 ITU=  1  0
 Use linear search instead of GDIIS.
     Eigenvalues ---    0.00230   0.00233   0.00844   0.00844   0.01678
     Eigenvalues ---    0.01735   0.02903   0.04037   0.04075   0.04574
     Eigenvalues ---    0.04579   0.04579   0.04582   0.04584   0.04584
     Eigenvalues ---    0.04584   0.04585   0.04585   0.04585   0.04585
[...]
 53,0.42610205,-0.00002936,0.00007112,0.00002836,0.00003938,-0.00024000
 ,-0.00009888,0.00011545,-0.00022092,0.00001768,-0.00006895,-0.00004946
 ,0.00003530,0.00001809,0.00001162,0.00000620,-0.00002338,0.00005475,0.
 00001300,-0.00000063,-0.00000953,-0.00000196,0.00000165,-0.00000204,-0
 .00000036,-0.00000918,-0.00002327,0.00000468,0.00003585,-0.00003336,-0
 .00001435,0.00185830,0.00152063,-0.00031934,-0.00042719,-0.00094705,0.
 00005368,0.00042711,0.03177420,0.00346390,-0.00501401,0.00154020,0.000
 24152,-0.04842347,-0.01085409,0.00026441,0.05535222,0.00000911,-0.0000
 0773,-0.00001099,-0.00000009,0.00040043,0.00014806,-0.00022092,0.00002
 196,-0.00000449,0.00006414,-0.00001556,-0.00001357,-0.00001344,-0.0000
 0951,0.00000369,0.00001103,-0.00002297,-0.00000191,-0.00000390,0.00000
 046,-0.00000096,0.00000287,0.00000248,0.00000141,0.00001059,0.00002486
 ,-0.00001506,-0.00000828,0.00001153,-0.00000191,-0.00190442,0.00134957
 ,0.00020992,0.00069508,0.00064474,-0.00019034,0.00043002,-0.01289936,-
 0.00055691,0.00175298,0.00044921,-0.00030508,-0.01109806,-0.31378727,-
 0.03154746,0.01058595,0.33683161,0.00003033,-0.00004132,-0.00000682,0.
 00001078,0.00004462,-0.00008081,-0.00001768,0.00000449,0.00000469,-0.0
 0004797,0.00002086,0.00001007,0.00002387,0.00000125,0.00000171,0.00001
 705,-0.00001119,0.00000711,0.00000102,-0.00000235,0.00001357,-0.000005
 84,0.00000343,-0.00000336,-0.00001495,0.00001504,-0.00001422,-0.000033
 26,0.00000942,-0.00001004,-0.00012344,0.00014821,-0.00046499,0.0001451
 5,-0.00000619,0.00020775,-0.00032737,0.00031212,0.00008497,-0.00050501
 ,-0.00011458,0.00150481,0.00174635,-0.02787041,-0.05027654,0.00482672,
 0.03472100,0.05558218,0.00028618,0.00001225,-0.00012329,-0.00052023,-0
 .00090636,-0.00259981,-0.00006895,0.00006414,0.00004797,-0.00076626,0.
 00034483,0.00016682,0.00004719,-0.00003689,0.00000840,0.00003584,0.000
 02882,-0.00001422,0.00003759,-0.00001623,0.00000997,-0.00001681,0.0000
 1102,0.00000826,-0.00000696,0.00000153,0.00001302,-0.00001890,0.000000
 60,0.00002417,-0.00203825,0.00373073,0.00088364,0.00002819,0.00015991,
 0.00097797,-0.02047471,-0.01285084,0.02072631,0.00103544,0.00026037,-0
 .00078224,-0.12643887,-0.05998488,0.11220854,-0.00067318,0.00014926,0.
 00052689,0.14271822,-0.00005580,-0.00006282,0.00000069,0.00015302,0.00
 066908,0.00093333,-0.00004946,-0.00001556,-0.00002086,0.00034483,-0.00
 013548,-0.00006868,-0.00001406,0.00002397,-0.00001242,-0.00001547,-0.0
 0003011,0.00001934,-0.00000464,0.00001145,0.00000056,0.00000115,-0.000
 00772,-0.00000313,0.00000389,-0.00001856,0.00000224,-0.00001218,0.0000
 0661,-0.00000569,0.00124479,-0.00064679,0.00005487,0.00020919,0.000161
 65,0.00014793,0.00748470,0.00657693,-0.01090983,-0.00065881,0.00046903
 ,-0.00010660,-0.05708016,-0.09265917,0.07780541,-0.01648008,-0.0104851
 7,0.02297071,0.06269282,0.09346136,0.00003573,0.00000273,-0.00005474,-
 0.00006568,0.00003010,-0.00057995,-0.00003530,0.00001357,0.00001007,-0
 .00016682,0.00006868,0.00001596,-0.00000228,-0.00002105,-0.00002460,0.
 00001118,0.00001597,-0.00000279,0.00000678,-0.00000308,0.00000556,-0.0
 0000286,-0.00000009,0.00000237,0.00002686,-0.00002345,0.00002350,0.000
 00130,-0.00000399,0.00001635,-0.00063583,-0.00021707,-0.00007697,-0.00
 000280,0.00005576,0.00025999,-0.00049310,-0.00081998,0.00311024,0.0002
 7713,-0.00001825,0.00031710,0.10752635,0.07574316,-0.18296263,-0.00297
 712,-0.00196882,0.00447231,-0.11342919,-0.08304856,0.20443657,-0.00117
 675,0.00033873,-0.00028925,-0.00007703,-0.00048360,0.00285294,-0.00002
 936,0.00000911,-0.00003033,0.00028618,-0.00005580,-0.00003573,-0.00018
 677,-0.00010990,-0.00025306,0.00001592,0.00016495,-0.00002560,-0.00008
 832,-0.00007271,0.00034752,-0.00002892,0.00004135,-0.00006097,0.000389
 49,-0.00007520,0.00002469,0.00008528,-0.00005854,0.00005529,-0.0006424
 4,0.00392813,-0.00079574,-0.00007818,-0.00003395,-0.00143398,-0.023841
 53,-0.00729217,-0.02578974,0.00058159,0.00029655,0.00047630,-0.0679161
 7,-0.00394935,-0.01347297,-0.00298785,-0.00055080,-0.00476044,0.006336
 59,0.00200052,0.01065377,0.44413986,0.00033873,0.00015167,-0.00008845,
 -0.00022212,0.00034112,-0.00063712,0.00007112,-0.00000773,0.00004132,0
 .00001225,-0.00006282,-0.00000273,-0.00006231,0.00003820,0.00001469,-0
 .00007269,-0.00002203,0.00000040,0.00001109,0.00003289,-0.00014419,0.0
 0002649,-0.00005215,0.00004006,-0.00009529,-0.00012493,0.00015523,0.00
 009305,-0.00003119,0.00003011,0.00061693,-0.00077030,0.00001404,-0.000
 07649,0.00008513,0.00003059,0.00252298,0.00345859,0.01069012,0.0008995
 8,-0.00024208,0.00015638,-0.00003940,-0.07124139,-0.00453315,-0.015444
 45,-0.00408067,-0.02789023,0.00596539,0.00140434,0.01019691,-0.0112612
 1,0.47896308,0.00028925,0.00008845,0.00006023,-0.00003043,0.00006146,0
 .00033998,-0.00002836,0.00001099,-0.00000682,0.00012329,-0.00000069,-0
 .00005474,0.00004216,-0.00000651,0.00003695,-0.00001545,-0.00002637,-0
 .00002855,-0.00004048,-0.00000376,-0.00005894,0.00001830,-0.00000646,-
 0.00000118,-0.00018836,0.00009267,-0.00001241,-0.00000859,-0.00000541,
 -0.00004028,0.00315462,0.00172368,-0.00146102,0.00000165,0.00002596,0.
 00016521,-0.01153308,0.00184549,0.00014657,0.00039264,-0.00009222,0.00
 039061,-0.00532142,-0.00871557,-0.09080092,-0.00362363,-0.00049459,-0.
 00923215,-0.01523297,-0.00692874,-0.02668271,-0.06411693,-0.02070435,0
 .37832408,-0.00008832,0.00001109,0.00004048,-0.00004176,-0.00005009,0.
 00023749,-0.00000063,-0.00000390,-0.00000102,0.00003759,-0.00000464,-0
 .00000678,-0.00001056,0.00000320,-0.00000205,0.00000310,0.00001231,-0.
 00000298,0.00000502,-0.00001134,0.00002769,-0.00001090,0.00000882,-0.0
 0001123,-0.00000016,0.00001156,-0.00001013,-0.00000112,-0.00000367,-0.
 00000449,-0.00002835,0.00012271,0.00006270,-0.00003947,-0.00004872,-0.
 00009364,-0.00132900,-0.00091691,-0.00318249,0.00012438,0.00006930,0.0
 0010712,-0.02915106,0.00658030,-0.01306223,0.00070034,0.00012835,0.001
 23936,0.00140443,0.00020310,0.00173938,-0.21866180,0.06943883,0.021157
 04,1.32727371,-0.00007271,0.00003289,0.00000376,0.00005790,-0.00010959
 ,0.00024465,-0.00000953,0.00000046,0.00000235,-0.00001623,0.00001145,0
 .00000308,0.00001226,-0.00000805,-0.00000148,0.00001661,0.00000688,-0.
 00000185,-0.00001134,-0.00001951,0.00004875,-0.00001074,0.00001202,-0.
 00001152,-0.00002045,0.00003295,-0.00002134,-0.00001327,0.00000169,-0.
 00000469,0.00003962,0.00041085,-0.00006527,-0.00000235,0.00003010,-0.0
 0014571,-0.00028903,-0.00014798,-0.00133189,-0.00028576,0.00006259,-0.
 00012060,0.00015113,0.00296496,0.00574222,-0.00139509,0.00025401,-0.00
 061215,0.00039663,0.00002094,-0.00011255,0.06860991,-0.09104845,-0.007
 73206,-0.54070333,0.34000354,-0.00034752,0.00014419,-0.00005894,0.0000
 6546,-0.00030513,0.00073427,0.00000196,0.00000096,0.00001357,-0.000009
 97,-0.00000056,0.00000556,-0.00002631,-0.00002816,-0.00006555,0.000021
 33,0.00006012,-0.00001601,-0.00002769,-0.00004875,0.00014812,-0.000029
 73,0.00002433,-0.00003059,0.00003370,-0.00001923,0.00002074,0.00000314
 ,-0.00001838,0.00001959,-0.00037110,0.00103388,-0.00024957,-0.00004600
 ,-0.00002545,-0.00038097,-0.00260228,-0.00288388,-0.00504750,0.0001215
 9,0.00013692,0.00014706,-0.02659478,0.01175309,0.00231310,-0.00006597,
 -0.00007180,0.00061113,-0.00075555,0.00062456,0.00021091,0.01937557,-0
 .00708529,-0.06083936,-0.16649379,0.07343105,0.12441861,-0.00018677,-0
 .00006231,-0.00004216,-0.00006251,0.00001363,0.00020822,0.00001809,-0.
 00001344,-0.00002387,0.00004719,-0.00001406,0.00000228,-0.00023020,0.0
 0003118,-0.00007195,-0.00001052,0.00001588,0.00000564,-0.00001056,0.00
 001226,0.00002631,0.00001137,-0.00000220,-0.00000548,0.00004922,0.0001
 0642,0.00000328,0.00001461,-0.00001026,-0.00002202,-0.00037048,0.00019
 116,-0.00045987,-0.00003399,-0.00011689,-0.00010188,0.00031757,0.00089
 630,-0.00086042,-0.00004708,0.00003518,0.00001946,0.01340170,0.0074723
 0,-0.00563708,0.00025661,-0.00001650,-0.00001606,-0.00223633,-0.001135
 28,-0.00339113,-0.10708636,-0.04123873,0.06990203,-0.02829344,-0.01158
 959,0.03048224,0.46235994,-0.00010990,0.00003820,0.00000651,-0.0000178
 8,-0.00015559,0.00000275,0.00001162,-0.00000951,-0.00000125,-0.0000368
 9,0.00002397,0.00002105,0.00003118,-0.00004174,-0.00001658,-0.00000923
 ,0.00001110,0.00001289,0.00000320,-0.00000805,0.00002816,-0.00000392,0
 .00000805,-0.00000904,0.00012949,-0.00000922,-0.00004467,0.00001409,-0
 .00000872,-0.00002417,0.00011891,0.00038766,0.00009383,-0.00006871,-0.
 00009789,-0.00014278,-0.00037313,-0.00035644,0.00071511,-0.00004922,-0
 .00000017,0.00008490,0.00610942,0.00367619,0.00313721,0.00013135,0.000
 39233,-0.00153233,-0.00123131,-0.00000472,-0.00131724,-0.04198876,-0.1
 0026917,0.06467206,0.00221380,0.00785349,-0.00845653,0.34043634,0.4210
 9395,0.00025306,-0.00001469,0.00003695,-0.00006577,0.00007799,-0.00037
 169,-0.00000620,-0.00000369,0.00000171,-0.00000840,0.00001242,-0.00002
 460,0.00007195,0.00001658,0.00003629,0.00001390,-0.00000794,-0.0000195
 0,0.00000205,0.00000148,-0.00006555,0.00000726,-0.00000946,0.00001590,
 -0.00016201,-0.00001382,0.00004675,0.00000472,0.00000444,0.00003642,-0
 .00030653,-0.00046397,0.00012457,0.00002192,0.00010448,0.00027375,0.00
 153430,0.00068506,0.00054583,0.00011822,-0.00006120,-0.00010224,0.0069
 3917,0.01205999,-0.03871911,0.00093497,0.00022055,0.00157803,-0.003066
 83,-0.00085449,-0.00405470,0.07239738,0.06503557,-0.16549527,0.0109561
 5,-0.00068549,-0.00770375,-0.54026038,-0.50780920,0.90875759,0.0000159
 2,-0.00007269,0.00001545,-0.00003667,0.00012096,0.00001680,-0.00002338
 ,0.00001103,-0.00001705,0.00003584,-0.00001547,-0.00001118,-0.00001052
 ,-0.00000923,-0.00001390,-0.00000037,-0.00002457,0.00001045,0.00000310
 ,0.00001661,-0.00002133,0.00000852,-0.00000299,0.00000440,0.00009528,0
 .00005564,-0.00004990,-0.00001330,0.00001133,-0.00000944,-0.00024419,-
 0.00002022,0.00005878,0.00007736,0.00008322,0.00003542,-0.00075640,-0.
 00145523,-0.00037728,-0.00060242,-0.00010919,-0.00064350,-0.00109740,-
 0.01848288,-0.00484741,-0.00135770,-0.00001988,-0.00319722,0.00062022,
 0.00068184,0.00075700,-0.06193210,-0.01207434,-0.00067042,-0.00172455,
 0.03644624,0.00594424,-0.00223317,-0.01980678,-0.00178990,0.10698431,0
 .00016495,-0.00002203,0.00002637,-0.00006743,0.00015624,-0.00018062,0.
 00005475,-0.00002297,0.00001119,0.00002882,-0.00003011,-0.00001597,0.0
 0001588,0.00001110,0.00000794,-0.00002457,-0.00001994,-0.00000162,0.00
 001231,0.00000688,-0.00006012,0.00000472,-0.00000641,0.00000964,-0.000
 09035,-0.00000654,0.00005429,0.00000600,-0.00000328,-0.00000403,0.0003
 2355,-0.00096371,-0.00001725,-0.00009938,-0.00011559,0.00009869,0.0003
 9522,0.00211268,0.00040589,0.00021874,-0.00053517,0.00018891,-0.010952
 12,-0.01223423,-0.01723337,-0.00010131,-0.00008546,0.00004250,0.000728
 01,0.00095049,0.00148582,-0.01065407,-0.24601642,-0.02523420,0.0116986
 0,-0.02595246,-0.00648436,-0.01001190,-0.02832444,0.00666246,0.0844020
 5,1.55992507,0.00002560,-0.00000040,-0.00002855,-0.00003783,0.00012814
 ,-0.00009410,-0.00001300,0.00000191,0.00000711,0.00001422,-0.00001934,
 -0.00000279,-0.00000564,-0.00001289,-0.00001950,-0.00001045,0.00000162
 ,-0.00000396,0.00000298,0.00000185,-0.00001601,0.00000290,-0.00000213,
 0.00000459,-0.00002561,-0.00003262,0.00004842,0.00000915,-0.00000403,0
 .00001487,-0.00003644,-0.00017665,0.00004831,0.00006845,0.00006029,-0.
 00000635,0.00005078,-0.00001182,0.00074813,-0.00068675,0.00006881,-0.0
 0012956,-0.00448222,-0.03156165,-0.00839000,-0.00311856,-0.00016285,-0
 .00475794,0.00047175,-0.00052331,0.00061986,-0.00021883,-0.02689014,-0
 .06302869,0.00005926,-0.00447167,-0.00106583,0.00304283,0.02972482,0.0
 0175446,0.01148878,0.18036813,0.12452918,0.00038949,-0.00009529,0.0001
 8836,0.00003389,0.00000561,-0.00004387,-0.00000918,0.00001059,0.000014
 95,-0.00000696,0.00000389,-0.00002686,0.00004922,0.00012949,0.00016201
 ,0.00009528,-0.00009035,0.00002561,-0.00000016,-0.00002045,-0.00003370
 ,-0.00001858,0.00001067,-0.00000281,-0.00036222,0.00017960,-0.00005461
 ,-0.00010226,0.00005021,-0.00005472,0.00041258,-0.00002567,-0.00024456
 ,0.00002670,0.00015805,0.00019359,-0.00031479,-0.00005110,-0.00067138,
 0.00005324,-0.00003987,0.00001305,-0.00446292,-0.00211283,-0.00038692,
 0.00006142,0.00017352,0.00016138,0.00099216,0.00054668,0.00076799,0.01
 238577,-0.00218948,0.00435878,0.00178650,0.00057244,-0.00173818,-0.336
 00780,-0.28800198,0.45170496,-0.00014732,-0.00016602,0.00104566,0.3247
 0387,-0.00007520,-0.00012493,-0.00009267,0.00011663,0.00014894,-0.0000
 0587,-0.00002327,0.00002486,-0.00001504,0.00000153,-0.00001856,0.00002
 345,0.00010642,-0.00000922,0.00001382,0.00005564,-0.00000654,0.0000326
 2,0.00001156,0.00003295,0.00001923,0.00000751,0.00000040,0.00000733,0.
 00017960,-0.00022471,-0.00002625,-0.00008348,0.00003447,0.00000205,-0.
 00007406,-0.00035935,-0.00004388,0.00006816,0.00009267,0.00011833,0.00
 018350,0.00030376,0.00000289,0.00000443,0.00003127,-0.00003153,-0.0026
 6102,-0.00131495,-0.00066981,0.00014284,0.00017395,0.00046323,0.000636
 24,0.00045479,0.00038287,-0.00147070,0.01207998,0.00271574,-0.00126606
 ,-0.00093285,0.00232477,-0.28827598,-0.30261771,0.42565700,0.00105537,
 0.00210196,-0.00208322,0.29092687,0.28984110,-0.00002469,-0.00015523,-
 0.00001241,0.00003295,0.00002892,0.00004142,-0.00000468,0.00001506,-0.
 00001422,-0.00001302,-0.00000224,0.00002350,-0.00000328,0.00004467,0.0
 0004675,0.00004990,-0.00005429,0.00004842,0.00001013,0.00002134,0.0000
 2074,-0.00000449,0.00000582,-0.00000079,0.00005461,0.00002625,-0.00005
 609,-0.00009463,0.00004236,-0.00004751,-0.00001354,0.00002437,-0.00009
 147,0.00000856,0.00002875,-0.00000402,0.00001888,-0.00022060,-0.000310
 61,-0.00001623,0.00003330,-0.00004381,0.00066593,0.00008094,0.00316846
 ,-0.00015699,-0.00000808,-0.00008855,-0.00016596,-0.00000493,0.0002496
 2,0.00365583,0.00362698,0.00928039,0.00101245,0.00103693,-0.00093412,0
 .45031973,0.42387690,-0.69795975,0.00175555,0.00135995,-0.00170389,-0.
 45589780,-0.42913192,0.68835012,0.00008528,0.00009305,0.00000859,0.000
 02928,0.00001531,-0.00007124,0.00003585,-0.00000828,0.00003326,-0.0000
 1890,-0.00001218,-0.00000130,0.00001461,0.00001409,-0.00000472,-0.0000
 1330,0.00000600,-0.00000915,-0.00000112,-0.00001327,-0.00000314,-0.000
 01331,-0.00000785,-0.00000151,-0.00010226,-0.00008348,0.00009463,-0.00
 000145,-0.00001354,0.00000634,0.00030037,-0.00039344,-0.00004008,-0.00
 010901,-0.00006111,0.00004039,-0.00051060,0.00071764,-0.00046612,0.000
 16111,-0.00047435,0.00011284,-0.00033802,0.00208687,-0.00014241,0.0002
 8412,-0.00006176,0.00052657,-0.00010163,-0.00008974,-0.00012955,0.0144
 6537,-0.00063890,0.00051632,0.00047192,-0.00399948,-0.00071884,0.00073
 361,0.00176194,0.00047751,-0.03510282,-0.06708771,-0.00820758,0.000019
 26,-0.00024074,-0.00019328,0.01964938,-0.00005854,-0.00003119,0.000005
 41,0.00000325,-0.00003967,0.00010462,-0.00003336,0.00001153,-0.0000094
 2,0.00000060,0.00000661,0.00000399,-0.00001026,-0.00000872,-0.00000444
 ,0.00001133,-0.00000328,0.00000403,-0.00000367,0.00000169,0.00001838,0
 .00000062,0.00000560,-0.00000404,0.00005021,0.00003447,-0.00004236,-0.
 00001354,0.00000815,-0.00000388,-0.00026499,0.00046898,0.00003820,0.00
 011982,0.00009040,-0.00009656,0.00057012,-0.00059388,0.00013690,-0.000
 58832,0.00032904,-0.00026654,0.00276506,-0.00171449,0.00432659,-0.0004
 6606,0.00062347,-0.00097290,-0.00009774,-0.00007526,-0.00051782,-0.000
 76385,0.00487619,-0.00122394,-0.00051675,-0.00108454,0.00003664,0.0004
 3462,-0.00082534,-0.00038948,-0.06829219,-1.25286717,-0.14444069,0.000
 59954,0.00038198,-0.00109715,0.06782693,1.25003846,-0.00005529,-0.0000
 3011,-0.00004028,0.00008133,0.00002382,-0.00004246,0.00001435,0.000001
 91,-0.00001004,-0.00002417,0.00000569,0.00001635,0.00002202,0.00002417
 ,0.00003642,0.00000944,0.00000403,0.00001487,0.00000449,0.00000469,0.0
 0001959,-0.00000271,-0.00000211,0.00000743,0.00005472,-0.00000205,-0.0
 0004751,-0.00000634,0.00000388,0.00000859,0.00008906,-0.00031550,0.000
 02917,-0.00008692,-0.00003091,-0.00001696,-0.00024641,0.00032786,-0.00
 014868,0.00024127,-0.00026553,-0.00016436,-0.00030894,0.00312910,0.000
 07219,0.00028127,-0.00015879,0.00080992,-0.00004821,0.00016908,0.00025
 383,0.00036465,-0.00193451,0.01442575,0.00022514,-0.00018967,0.0006265
 1,-0.00040072,-0.00381000,0.00026052,-0.00818552,-0.14193490,-0.049154
 72,0.00011892,0.00064066,-0.00005535,0.00806752,0.14429145,0.03311245,
 -0.00002892,0.00002649,-0.00001830,0.00003829,-0.00007277,0.00012572,0
 .00000165,0.00000287,0.00000584,-0.00001681,0.00000115,0.00000286,0.00
 001137,-0.00000392,-0.00000726,0.00000852,0.00000472,-0.00000290,-0.00
 001090,-0.00001074,0.00002973,-0.00000657,0.00000541,-0.00000505,-0.00
 001858,0.00000751,0.00000449,-0.00001331,0.00000062,0.00000271,0.00002
 285,0.00026939,-0.00011144,0.00000617,0.00001492,-0.00006745,0.0003010
 3,-0.00057692,-0.00038098,-0.00003866,0.00003409,0.00001075,0.00193693
 ,0.00093309,0.00398761,-0.00013564,-0.00011484,-0.00020621,-0.00018098
 ,0.00002916,-0.00047181,0.00604753,0.00341893,0.00085404,-1.05242588,0
 .45211618,0.14377846,-0.00040073,0.00073638,0.00022852,-0.00255825,0.0
 0120126,0.00056057,0.00042281,0.00067423,-0.00099591,0.00006227,-0.001
 27283,-0.00020895,1.04697580,0.00004135,-0.00005215,0.00000646,-0.0000
 2192,0.00007539,-0.00012607,-0.00000204,0.00000248,-0.00000343,0.00001
 102,-0.00000772,0.00000009,-0.00000220,0.00000805,0.00000946,-0.000002
 99,-0.00000641,0.00000213,0.00000882,0.00001202,-0.00002433,0.00000541
 ,-0.00000091,0.00000516,0.00001067,0.00000040,-0.00000582,-0.00000785,
 0.00000560,0.00000211,-0.00002486,-0.00027016,0.00006529,0.00002108,-0
 .00000811,0.00007142,0.00014075,0.00064736,0.00058322,-0.00003136,0.00
 000005,0.00001252,0.00001474,-0.00096563,-0.00248792,0.00043407,0.0002
 1310,0.00029680,-0.00005830,-0.00006929,0.00007636,0.00343136,0.012538
 15,-0.00006162,0.45302347,-0.23239538,-0.06414299,0.00284186,-0.000756
 24,-0.00022460,-0.00249860,0.00194150,0.00003786,-0.00057413,-0.000094
 25,0.00042188,0.00066401,0.00036699,0.00004773,-0.45742437,0.21881517,
 0.00006097,-0.00004006,-0.00000118,-0.00002827,0.00006382,-0.00023533,
 0.00000036,-0.00000141,-0.00000336,-0.00000826,0.00000313,0.00000237,0
 .00000548,0.00000904,0.00001590,-0.00000440,-0.00000964,0.00000459,0.0
 0001123,0.00001152,-0.00003059,0.00000505,-0.00000516,0.00001121,0.000
 00281,-0.00000733,-0.00000079,0.00000151,0.00000404,0.00000743,-0.0000
 4224,-0.00026301,0.00013470,0.00001412,-0.00000289,0.00008658,0.000396
 27,0.00067493,0.00113760,-0.00005223,-0.00001598,-0.00004506,0.0017831
 7,-0.00173123,-0.00224400,0.00020548,0.00020896,0.00004716,0.00014458,
 -0.00024147,0.00043486,0.00107964,-0.00012224,0.01457328,0.14600656,-0
 .06500483,-0.05287699,-0.00271903,0.00078761,0.00104740,-0.00025285,0.
 00044470,0.00062696,0.00040016,-0.00030378,0.00009316,0.00010496,0.000
 10302,-0.00001323,-0.14711506,0.06543828,0.03722734\\0.00001967,0.0000
 1518,-0.00004188,-0.00003333,-0.00000318,0.00003017,0.00000099,0.00000
 006,-0.00000719,-0.00000070,0.00000472,-0.00000556,-0.00000744,-0.0000
 1288,-0.00001946,0.00000907,0.00000744,0.00000868,0.00001061,-0.000004
 69,0.00001896,-0.00001527,0.00000640,-0.00000888,0.00000659,0.00000846
 ,0.00001901,-0.00000348,-0.00002000,0.00000143,0.00002853,0.00000162,0
 .00000514,-0.00000337,-0.00000044,-0.00000041,-0.00002853,-0.00000162,
 0.00000514,0.00000337,0.00000044,-0.00000041,0.00003333,0.00000318,0.0
 0003017,-0.00000099,-0.00000006,-0.00000719,0.00000070,-0.00000472,-0.
 00000556,-0.00001967,-0.00001518,-0.00004188,-0.00001061,0.00000469,0.
 00001896,0.00000744,0.00001288,-0.00001946,-0.00000907,-0.00000744,0.0
 0000868,-0.00000659,-0.00000846,0.00001901,0.00000348,0.00002000,0.000
 00143,0.00001527,-0.00000640,-0.00000888\\\@
 Job cpu time:       1 days  2 hours 55 minutes 11.3 seconds.
 Elapsed time:       0 days  2 hours 41 minutes 32.7 seconds.
 File lengths (MBytes):  RWF= 230809 Int=      0 D2E=      0 Chk=    248 Scr=      1
 Normal termination of Gaussian 16 at Sat Jun 25 02:11:53 2022.
