 Entering Gaussian System, Link 0=/home/artemiy/opt/gaussian/g16/g16
 Input=1,1,1,5,5,5-Hexafluoro-2,4-pentanedione_enol_G4_after_G3MP2.gjf
 Output=1,1,1,5,5,5-Hexafluoro-2,4-pentanedione_enol_G4_after_G3MP2.log
 Initial command:
 /home/artemiy/opt/gaussian/g16/l1.exe "/home/artemiy/opt/gaussian/scr/Gau-21551.inp" -scrdir="/home/artemiy/opt/gaussian/scr/"
 Entering Link 1 = /home/artemiy/opt/gaussian/g16/l1.exe PID=     21554.
  
 Copyright (c) 1988,1990,1992,1993,1995,1998,2003,2009,2016,
            Gaussian, Inc.  All Rights Reserved.
  
 This is part of the Gaussian(R) 16 program.  It is based on
 the Gaussian(R) 09 system (copyright 2009, Gaussian, Inc.),
 the Gaussian(R) 03 system (copyright 2003, Gaussian, Inc.),
 the Gaussian(R) 98 system (copyright 1998, Gaussian, Inc.),
 the Gaussian(R) 94 system (copyright 1995, Gaussian, Inc.),
 the Gaussian 92(TM) system (copyright 1992, Gaussian, Inc.),
 the Gaussian 90(TM) system (copyright 1990, Gaussian, Inc.),
 the Gaussian 88(TM) system (copyright 1988, Gaussian, Inc.),
 the Gaussian 86(TM) system (copyright 1986, Carnegie Mellon
 University), and the Gaussian 82(TM) system (copyright 1983,
 Carnegie Mellon University). Gaussian is a federally registered
 trademark of Gaussian, Inc.
  
 This software contains proprietary and confidential information,
 including trade secrets, belonging to Gaussian, Inc.
  
 This software is provided under written license and may be
 used, copied, transmitted, or stored only in accord with that
 written license.
  
 The following legend is applicable only to US Government
 contracts under FAR:
  
                    RESTRICTED RIGHTS LEGEND
  
 Use, reproduction and disclosure by the US Government is
 subject to restrictions as set forth in subparagraphs (a)
 and (c) of the Commercial Computer Software - Restricted
 Rights clause in FAR 52.227-19.
  
 Gaussian, Inc.
 340 Quinnipiac St., Bldg. 40, Wallingford CT 06492
  
  
 ---------------------------------------------------------------
 Warning -- This program may not be used in any manner that
 competes with the business of Gaussian, Inc. or will provide
 assistance to any competitor of Gaussian, Inc.  The licensee
 of this program is prohibited from giving any competitor of
 Gaussian, Inc. access to this program.  By using this program,
 the user acknowledges that Gaussian, Inc. is engaged in the
 business of creating and licensing software in the field of
 computational chemistry and represents and warrants to the
 licensee that it is not a competitor of Gaussian, Inc. and that
 it will not use this program in any manner prohibited above.
 ---------------------------------------------------------------
  

 Cite this work as:
 Gaussian 16, Revision A.03,
 M. J. Frisch, G. W. Trucks, H. B. Schlegel, G. E. Scuseria, 
 M. A. Robb, J. R. Cheeseman, G. Scalmani, V. Barone, 
 G. A. Petersson, H. Nakatsuji, X. Li, M. Caricato, A. V. Marenich, 
 J. Bloino, B. G. Janesko, R. Gomperts, B. Mennucci, H. P. Hratchian, 
 J. V. Ortiz, A. F. Izmaylov, J. L. Sonnenberg, D. Williams-Young, 
 F. Ding, F. Lipparini, F. Egidi, J. Goings, B. Peng, A. Petrone, 
 T. Henderson, D. Ranasinghe, V. G. Zakrzewski, J. Gao, N. Rega, 
 G. Zheng, W. Liang, M. Hada, M. Ehara, K. Toyota, R. Fukuda, 
 J. Hasegawa, M. Ishida, T. Nakajima, Y. Honda, O. Kitao, H. Nakai, 
 T. Vreven, K. Throssell, J. A. Montgomery, Jr., J. E. Peralta, 
 F. Ogliaro, M. J. Bearpark, J. J. Heyd, E. N. Brothers, K. N. Kudin, 
 V. N. Staroverov, T. A. Keith, R. Kobayashi, J. Normand, 
 K. Raghavachari, A. P. Rendell, J. C. Burant, S. S. Iyengar, 
 J. Tomasi, M. Cossi, J. M. Millam, M. Klene, C. Adamo, R. Cammi, 
 J. W. Ochterski, R. L. Martin, K. Morokuma, O. Farkas, 
 J. B. Foresman, and D. J. Fox, Gaussian, Inc., Wallingford CT, 2016.
 
 ******************************************
 Gaussian 16:  ES64L-G16RevA.03 25-Dec-2016
                28-Nov-2021 
 ******************************************
 %mem=47GB
 %nprocshared=7
 Will use up to    7 processors via shared memory.
 -------------
 # g4 geom=gic
 -------------
 1/18=20,19=15,26=3,38=1,145=2/1,3;
 2/9=110,12=2,17=6,18=5,40=1/2;
 3/5=35,7=104,11=2,25=1,30=1,71=1,74=-5/1,2,3;
 4//1;
 5/5=2,38=5/2;
 6/7=2,8=2,9=2,10=2,28=1/1;
 7//1,2,3,16;
 1/18=20,19=15,26=3,145=2/3(2);
 2/9=110/2;
 99//99;
 2/9=110/2;
 3/5=35,7=104,11=2,25=1,30=1,71=1,74=-5/1,2,3;
 4/5=5,16=3,69=1/1;
 5/5=2,38=5/2;
 7//1,2,3,16;
 1/18=20,19=15,26=3,145=2/3(-5);
 2/9=110/2;
 6/7=2,8=2,9=2,10=2,19=2,28=1/1;
 99/9=1/99;
 -------------------
 CAS 1522-22-1
 -------------------
 Symbolic Z-matrix:
 Charge =  0 Multiplicity = 1
 C                    -2.50014  -0.31247   0.00023 
 F                    -3.21338   0.02157  -1.08842 
 F                    -3.21307   0.02116   1.0892 
 F                    -2.32967  -1.6478   -0.00004 
 C                    -1.1752    0.40871   0.00017 
 C                     0.0152   -0.24845  -0.00015 
 C                     1.2342    0.51968  -0.00015 
 O                     1.29232   1.7599    0.00007 
 C                     2.53796  -0.28103  -0.00032 
 F                     2.58082  -1.07479   1.09065 
 F                     2.58017  -1.07548  -1.09082 
 F                     3.60966   0.51093  -0.00089 
 H                     0.04081  -1.32918  -0.00038 
 O                    -1.34373   1.72516   0.00046 
 H                    -0.43241   2.12974   0.00039 
 
 Initializing the GIC definitions file.

 GradGradGradGradGradGradGradGradGradGradGradGradGradGradGradGradGradGrad
 Berny optimization.
 Initialization pass.
                           ----------------------------
                           !    Initial Parameters    !
                           ! (Angstroms and Degrees)  !
 --------------------------                            --------------------------
 ! Name  Definition              Value          Derivative Info.                !
 --------------------------------------------------------------------------------
 ! R1    R(1,2)                  1.3437         estimate D2E/DX2                !
 ! R2    R(1,3)                  1.3437         estimate D2E/DX2                !
 ! R3    R(1,4)                  1.3462         estimate D2E/DX2                !
 ! R4    R(1,5)                  1.5085         estimate D2E/DX2                !
 ! R5    R(5,6)                  1.3597         estimate D2E/DX2                !
 ! R6    R(5,14)                 1.3272         estimate D2E/DX2                !
 ! R7    R(6,7)                  1.4408         estimate D2E/DX2                !
 ! R8    R(6,13)                 1.081          estimate D2E/DX2                !
 ! R9    R(7,8)                  1.2416         estimate D2E/DX2                !
 ! R10   R(7,9)                  1.53           estimate D2E/DX2                !
 ! R11   R(9,10)                 1.3499         estimate D2E/DX2                !
 ! R12   R(9,11)                 1.3499         estimate D2E/DX2                !
 ! R13   R(9,12)                 1.3326         estimate D2E/DX2                !
 ! R14   R(14,15)                0.9971         estimate D2E/DX2                !
 ! A1    A(2,1,3)              108.2556         estimate D2E/DX2                !
 ! A2    A(2,1,4)              108.2797         estimate D2E/DX2                !
 ! A3    A(2,1,5)              110.3249         estimate D2E/DX2                !
 ! A4    A(3,1,4)              108.2797         estimate D2E/DX2                !
 ! A5    A(3,1,5)              110.3249         estimate D2E/DX2                !
 ! A6    A(4,1,5)              111.285          estimate D2E/DX2                !
 ! A7    A(1,5,6)              122.5394         estimate D2E/DX2                !
 ! A8    A(1,5,14)             111.2647         estimate D2E/DX2                !
 ! A9    A(6,5,14)             126.196          estimate D2E/DX2                !
 ! A10   A(5,6,7)              118.8832         estimate D2E/DX2                !
 ! A11   A(5,6,13)             120.2582         estimate D2E/DX2                !
 ! A12   A(7,6,13)             120.8586         estimate D2E/DX2                !
 ! A13   A(6,7,8)              124.8992         estimate D2E/DX2                !
 ! A14   A(6,7,9)              116.2274         estimate D2E/DX2                !
 ! A15   A(8,7,9)              118.8734         estimate D2E/DX2                !
 ! A16   A(7,9,10)             109.5548         estimate D2E/DX2                !
 ! A17   A(7,9,11)             109.5571         estimate D2E/DX2                !
 ! A18   A(7,9,12)             111.9801         estimate D2E/DX2                !
 ! A19   A(10,9,11)            107.8092         estimate D2E/DX2                !
 ! A20   A(10,9,12)            108.9222         estimate D2E/DX2                !
 ! A21   A(11,9,12)            108.9219         estimate D2E/DX2                !
 ! A22   A(5,14,15)            106.6439         estimate D2E/DX2                !
 ! D1    D(2,1,5,6)           -120.2154         estimate D2E/DX2                !
 ! D2    D(2,1,5,14)            59.7843         estimate D2E/DX2                !
 ! D3    D(3,1,5,6)            120.2179         estimate D2E/DX2                !
 ! D4    D(3,1,5,14)           -59.7823         estimate D2E/DX2                !
 ! D5    D(4,1,5,6)              0.0012         estimate D2E/DX2                !
 ! D6    D(4,1,5,14)          -179.999          estimate D2E/DX2                !
 ! D7    D(1,5,6,7)           -179.9985         estimate D2E/DX2                !
 ! D8    D(1,5,6,13)             0.0003         estimate D2E/DX2                !
 ! D9    D(14,5,6,7)             0.0018         estimate D2E/DX2                !
 ! D10   D(14,5,6,13)         -179.9994         estimate D2E/DX2                !
 ! D11   D(1,5,14,15)         -179.9993         estimate D2E/DX2                !
 ! D12   D(6,5,14,15)            0.0004         estimate D2E/DX2                !
 ! D13   D(5,6,7,8)             -0.0032         estimate D2E/DX2                !
 ! D14   D(5,6,7,9)            179.992          estimate D2E/DX2                !
 ! D15   D(13,6,7,8)           179.9981         estimate D2E/DX2                !
 ! D16   D(13,6,7,9)            -0.0067         estimate D2E/DX2                !
 ! D17   D(6,7,9,10)           -59.065          estimate D2E/DX2                !
 ! D18   D(6,7,9,11)            59.0096         estimate D2E/DX2                !
 ! D19   D(6,7,9,12)           179.9729         estimate D2E/DX2                !
 ! D20   D(8,7,9,10)           120.9305         estimate D2E/DX2                !
 ! D21   D(8,7,9,11)          -120.9949         estimate D2E/DX2                !
 ! D22   D(8,7,9,12)            -0.0316         estimate D2E/DX2                !
 --------------------------------------------------------------------------------
 Trust Radius=3.00D-01 FncErr=1.00D-07 GrdErr=1.00D-06 EigMax=2.50D+02 EigMin=1.00D-04
 Number of steps in this run=     68 maximum allowed number of steps=    100.
 GradGradGradGradGradGradGradGradGradGradGradGradGradGradGradGradGradGrad

                          Input orientation:                          
 ---------------------------------------------------------------------
 Center     Atomic      Atomic             Coordinates (Angstroms)
 Number     Number       Type             X           Y           Z
 ---------------------------------------------------------------------
      1          6           0       -2.500140   -0.312474    0.000229
      2          9           0       -3.213383    0.021565   -1.088418
      3          9           0       -3.213069    0.021164    1.089203
      4          9           0       -2.329674   -1.647800   -0.000042
      5          6           0       -1.175197    0.408708    0.000170
      6          6           0        0.015201   -0.248445   -0.000148
      7          6           0        1.234200    0.519680   -0.000147
      8          8           0        1.292319    1.759903    0.000069
      9          6           0        2.537956   -0.281031   -0.000322
     10          9           0        2.580820   -1.074793    1.090645
     11          9           0        2.580170   -1.075476   -1.090820
     12          9           0        3.609663    0.510934   -0.000892
     13          1           0        0.040812   -1.329179   -0.000376
     14          8           0       -1.343728    1.725155    0.000458
     15          1           0       -0.432405    2.129744    0.000388
 ---------------------------------------------------------------------
                    Distance matrix (angstroms):
                    1          2          3          4          5
     1  C    0.000000
     2  F    1.343670   0.000000
     3  F    1.343669   2.177621   0.000000
     4  F    1.346163   2.179973   2.179973   0.000000
     5  C    1.508502   2.342884   2.342884   2.358398   0.000000
     6  C    2.516156   3.417747   3.417763   2.730684   1.359742
     7  C    3.825935   4.605806   4.605801   4.171231   2.411951
     8  O    4.321746   4.950553   4.950550   4.973055   2.813248
     9  C    5.038194   5.861179   5.861116   5.055876   3.776671
    10  F    5.252265   6.286740   5.896632   5.062696   4.183010
    11  F    5.251867   5.896504   6.286234   5.062007   4.182803
    12  F    6.165038   6.926482   6.926605   6.319482   4.785952
    13  H    2.736810   3.687564   3.687594   2.391803   2.121068
    14  O    2.342909   2.753812   2.753795   3.514102   1.327191
    15  H    3.199993   3.655647   3.655642   4.227229   1.874488
                    6          7          8          9         10
     6  C    0.000000
     7  C    1.440824   0.000000
     8  O    2.380019   1.241584   0.000000
     9  C    2.522965   1.530006   2.391030   0.000000
    10  F    2.907762   2.354901   3.299256   1.349853   0.000000
    11  F    2.907338   2.354936   3.299693   1.349856   2.181465
    12  F    3.673801   2.375479   2.632491   1.332578   2.182774
    13  H    1.081037   2.200558   3.332971   2.708199   2.776091
    14  O    2.396202   2.845854   2.636276   4.369468   4.942701
    15  H    2.419945   2.317300   1.763932   3.825556   4.531803
                   11         12         13         14         15
    11  F    0.000000
    12  F    2.182772   0.000000
    13  H    2.775207   4.015310   0.000000
    14  O    4.942813   5.100041   3.353492   0.000000
    15  H    4.532083   4.354177   3.491144   0.997097   0.000000
 Stoichiometry    C5H2F6O2
 Framework group  C1[X(C5H2F6O2)]
 Deg. of freedom    39
 Full point group                 C1      NOp   1
 Largest Abelian subgroup         C1      NOp   1
 Largest concise Abelian subgroup C1      NOp   1
                         Standard orientation:                         
 ---------------------------------------------------------------------
 Center     Atomic      Atomic             Coordinates (Angstroms)
 Number     Number       Type             X           Y           Z
 ---------------------------------------------------------------------
      1          6           0       -2.500140   -0.312474    0.000229
      2          9           0       -3.213383    0.021565   -1.088418
      3          9           0       -3.213069    0.021164    1.089203
      4          9           0       -2.329674   -1.647800   -0.000042
      5          6           0       -1.175197    0.408708    0.000170
      6          6           0        0.015201   -0.248445   -0.000148
      7          6           0        1.234200    0.519680   -0.000147
      8          8           0        1.292319    1.759903    0.000069
      9          6           0        2.537956   -0.281031   -0.000322
     10          9           0        2.580820   -1.074793    1.090645
     11          9           0        2.580170   -1.075476   -1.090820
     12          9           0        3.609663    0.510934   -0.000892
     13          1           0        0.040812   -1.329179   -0.000376
     14          8           0       -1.343728    1.725155    0.000458
     15          1           0       -0.432405    2.129744    0.000388
 ---------------------------------------------------------------------
 Rotational constants (GHZ):           1.6720296           0.3802199           0.3483139
 Standard basis: GTBas3 (6D, 7F)
 There are   413 symmetry adapted cartesian basis functions of A   symmetry.
 There are   374 symmetry adapted basis functions of A   symmetry.
   374 basis functions,   586 primitive gaussians,   413 cartesian basis functions
    51 alpha electrons       51 beta electrons
       nuclear repulsion energy       882.8282909139 Hartrees.
 NAtoms=   15 NActive=   15 NUniq=   15 SFac= 1.00D+00 NAtFMM=   60 NAOKFM=F Big=F
 Integral buffers will be    131072 words long.
 Raffenetti 2 integral format.
 Two-electron integral symmetry is turned on.
 One-electron integrals computed using PRISM.
 NBasis=   374 RedAO= T EigKep=  3.07D-04  NBF=   374
 NBsUse=   374 1.00D-06 EigRej= -1.00D+00 NBFU=   374
 ExpMin= 1.61D-01 ExpMax= 7.00D+03 ExpMxC= 1.05D+03 IAcc=3 IRadAn=         5 AccDes= 0.00D+00
 Harris functional with IExCor=  402 and IRadAn=       5 diagonalized for initial guess.
 HarFok:  IExCor=  402 AccDes= 0.00D+00 IRadAn=         5 IDoV= 1 UseB2=F ITyADJ=14
 ICtDFT=  3500011 ScaDFX=  1.000000  1.000000  1.000000  1.000000
 FoFCou: FMM=F IPFlag=           0 FMFlag=      100000 FMFlg1=           0
         NFxFlg=           0 DoJE=T BraDBF=F KetDBF=T FulRan=T
         wScrn=  0.000000 ICntrl=       500 IOpCl=  0 I1Cent=   200000004 NGrid=           0
         NMat0=    1 NMatS0=      1 NMatT0=    0 NMatD0=    1 NMtDS0=    0 NMtDT0=    0
 Petite list used in FoFCou.
 Requested convergence on RMS density matrix=1.00D-08 within 128 cycles.
 Requested convergence on MAX density matrix=1.00D-06.
 Requested convergence on             energy=1.00D-06.
 No special actions if energy rises.
 Integral accuracy reduced to 1.0D-05 until final iterations.
 Initial convergence to 1.0D-05 achieved.  Increase integral accuracy.
 SCF Done:  E(RB3LYP) =  -941.272783358     A.U. after   14 cycles
            NFock= 14  Conv=0.51D-08     -V/T= 2.0060

 **********************************************************************

            Population analysis using the SCF density.

 **********************************************************************

 Orbital symmetries:
       Occupied  (A) (A) (A) (A) (A) (A) (A) (A) (A) (A) (A) (A)
                 (A) (A) (A) (A) (A) (A) (A) (A) (A) (A) (A) (A)
                 (A) (A) (A) (A) (A) (A) (A) (A) (A) (A) (A) (A)
                 (A) (A) (A) (A) (A) (A) (A) (A) (A) (A) (A) (A)
                 (A) (A) (A)
       Virtual   (A) (A) (A) (A) (A) (A) (A) (A) (A) (A) (A) (A)
                 (A) (A) (A) (A) (A) (A) (A) (A) (A) (A) (A) (A)
                 (A) (A) (A) (A) (A) (A) (A) (A) (A) (A) (A) (A)
                 (A) (A) (A) (A) (A) (A) (A) (A) (A) (A) (A) (A)
                 (A) (A) (A) (A) (A) (A) (A) (A) (A) (A) (A) (A)
                 (A) (A) (A) (A) (A) (A) (A) (A) (A) (A) (A) (A)
                 (A) (A) (A) (A) (A) (A) (A) (A) (A) (A) (A) (A)
                 (A) (A) (A) (A) (A) (A) (A) (A) (A) (A) (A) (A)
                 (A) (A) (A) (A) (A) (A) (A) (A) (A) (A) (A) (A)
                 (A) (A) (A) (A) (A) (A) (A) (A) (A) (A) (A) (A)
                 (A) (A) (A) (A) (A) (A) (A) (A) (A) (A) (A) (A)
                 (A) (A) (A) (A) (A) (A) (A) (A) (A) (A) (A) (A)
                 (A) (A) (A) (A) (A) (A) (A) (A) (A) (A) (A) (A)
                 (A) (A) (A) (A) (A) (A) (A) (A) (A) (A) (A) (A)
                 (A) (A) (A) (A) (A) (A) (A) (A) (A) (A) (A) (A)
                 (A) (A) (A) (A) (A) (A) (A) (A) (A) (A) (A) (A)
                 (A) (A) (A) (A) (A) (A) (A) (A) (A) (A) (A) (A)
                 (A) (A) (A) (A) (A) (A) (A) (A) (A) (A) (A) (A)
                 (A) (A) (A) (A) (A) (A) (A) (A) (A) (A) (A) (A)
                 (A) (A) (A) (A) (A) (A) (A) (A) (A) (A) (A) (A)
                 (A) (A) (A) (A) (A) (A) (A) (A) (A) (A) (A) (A)
                 (A) (A) (A) (A) (A) (A) (A) (A) (A) (A) (A) (A)
                 (A) (A) (A) (A) (A) (A) (A) (A) (A) (A) (A) (A)
                 (A) (A) (A) (A) (A) (A) (A) (A) (A) (A) (A) (A)
                 (A) (A) (A) (A) (A) (A) (A) (A) (A) (A) (A) (A)
                 (A) (A) (A) (A) (A) (A) (A) (A) (A) (A) (A) (A)
                 (A) (A) (A) (A) (A) (A) (A) (A) (A) (A) (A)
 The electronic state is 1-A.
 Alpha  occ. eigenvalues --  -24.74883 -24.74384 -24.74384 -24.74267 -24.74266
 Alpha  occ. eigenvalues --  -24.74138 -19.22185 -19.18272 -10.45297 -10.44281
 Alpha  occ. eigenvalues --  -10.31851 -10.31785 -10.22833  -1.32987  -1.32541
 Alpha  occ. eigenvalues --   -1.24397  -1.24077  -1.23996  -1.23770  -1.12038
 Alpha  occ. eigenvalues --   -1.07637  -0.84106  -0.77945  -0.73889  -0.67392
 Alpha  occ. eigenvalues --   -0.65153  -0.61278  -0.60820  -0.60462  -0.60393
 Alpha  occ. eigenvalues --   -0.58637  -0.55195  -0.52549  -0.49399  -0.48671
 Alpha  occ. eigenvalues --   -0.48014  -0.48008  -0.47484  -0.46505  -0.44999
 Alpha  occ. eigenvalues --   -0.44858  -0.44123  -0.43266  -0.42730  -0.42420
 Alpha  occ. eigenvalues --   -0.42368  -0.42152  -0.40992  -0.40232  -0.30436
 Alpha  occ. eigenvalues --   -0.29076
 Alpha virt. eigenvalues --   -0.10499   0.01634   0.07553   0.11445   0.12914
 Alpha virt. eigenvalues --    0.14965   0.18631   0.18714   0.19081   0.19162
 Alpha virt. eigenvalues --    0.20808   0.22463   0.25708   0.28177   0.32005
 Alpha virt. eigenvalues --    0.35050   0.37260   0.37998   0.39754   0.40667
 Alpha virt. eigenvalues --    0.40764   0.43162   0.45182   0.47228   0.49610
 Alpha virt. eigenvalues --    0.51136   0.53965   0.54459   0.54974   0.56264
 Alpha virt. eigenvalues --    0.61528   0.61638   0.64158   0.64347   0.65940
 Alpha virt. eigenvalues --    0.67425   0.69577   0.71924   0.72790   0.73211
 Alpha virt. eigenvalues --    0.75365   0.80853   0.82529   0.82921   0.83090
 Alpha virt. eigenvalues --    0.83817   0.85024   0.85726   0.86839   0.87642
 Alpha virt. eigenvalues --    0.88686   0.90511   0.91377   0.91674   0.92884
 Alpha virt. eigenvalues --    0.93890   0.94799   0.95883   0.96387   0.96399
 Alpha virt. eigenvalues --    0.98406   0.98786   0.99105   0.99501   1.01518
 Alpha virt. eigenvalues --    1.02186   1.04289   1.04482   1.04809   1.05062
 Alpha virt. eigenvalues --    1.08295   1.09543   1.09577   1.12034   1.14888
 Alpha virt. eigenvalues --    1.15038   1.17097   1.17267   1.18700   1.19576
 Alpha virt. eigenvalues --    1.19710   1.24470   1.27150   1.27809   1.30228
 Alpha virt. eigenvalues --    1.32796   1.33441   1.35164   1.36354   1.38800
 Alpha virt. eigenvalues --    1.39232   1.41142   1.42497   1.43883   1.45331
 Alpha virt. eigenvalues --    1.47725   1.49763   1.53074   1.54067   1.54214
 Alpha virt. eigenvalues --    1.55417   1.56642   1.57331   1.61543   1.62084
 Alpha virt. eigenvalues --    1.66037   1.66860   1.67671   1.70159   1.73732
 Alpha virt. eigenvalues --    1.74352   1.74745   1.75922   1.79154   1.80382
 Alpha virt. eigenvalues --    1.82983   1.85942   1.89493   1.92801   1.93619
 Alpha virt. eigenvalues --    1.95479   1.99841   2.01844   2.02231   2.07083
 Alpha virt. eigenvalues --    2.12134   2.16798   2.18708   2.20468   2.20951
 Alpha virt. eigenvalues --    2.23409   2.28523   2.33025   2.35259   2.38567
 Alpha virt. eigenvalues --    2.41189   2.48400   2.52175   2.70143   2.74883
 Alpha virt. eigenvalues --    2.83580   2.83738   2.86420   2.88937   2.90961
 Alpha virt. eigenvalues --    2.92756   3.01043   3.03540   3.05663   3.06103
 Alpha virt. eigenvalues --    3.06741   3.11883   3.12031   3.13274   3.16607
 Alpha virt. eigenvalues --    3.16881   3.17463   3.23465   3.23623   3.24277
 Alpha virt. eigenvalues --    3.29581   3.31667   3.39094   3.41433   3.43904
 Alpha virt. eigenvalues --    3.49318   3.49327   3.53857   3.53905   3.67928
 Alpha virt. eigenvalues --    3.70997   3.75873   3.75938   3.77725   3.79495
 Alpha virt. eigenvalues --    3.84201   3.89032   3.91876   3.93327   3.93756
 Alpha virt. eigenvalues --    3.97570   4.00570   4.04336   4.05391   4.05738
 Alpha virt. eigenvalues --    4.10985   4.11418   4.11831   4.13226   4.14124
 Alpha virt. eigenvalues --    4.14761   4.15995   4.16282   4.17751   4.18190
 Alpha virt. eigenvalues --    4.19352   4.20656   4.21281   4.21523   4.22503
 Alpha virt. eigenvalues --    4.23056   4.23345   4.23989   4.24822   4.28345
 Alpha virt. eigenvalues --    4.32777   4.32904   4.34113   4.35130   4.37050
 Alpha virt. eigenvalues --    4.40151   4.41949   4.42793   4.43615   4.46800
 Alpha virt. eigenvalues --    4.48221   4.51612   4.53087   4.54552   4.55197
 Alpha virt. eigenvalues --    4.56852   4.57013   4.59057   4.60414   4.62444
 Alpha virt. eigenvalues --    4.63669   4.64744   4.67189   4.70152   4.70802
 Alpha virt. eigenvalues --    4.71747   4.72704   4.75194   4.77694   4.78373
 Alpha virt. eigenvalues --    4.80692   4.82878   4.85747   4.88338   4.90449
 Alpha virt. eigenvalues --    4.99686   5.03370   5.03965   5.06061   5.09138
 Alpha virt. eigenvalues --    5.10187   5.13073   5.24871   5.26737   5.39512
 Alpha virt. eigenvalues --    5.44241   5.45569   5.49660   5.56004   5.61778
 Alpha virt. eigenvalues --    5.67352   5.74400   5.83098   5.86138   5.96964
 Alpha virt. eigenvalues --    6.12044   6.23694   6.28437   6.40320   6.50247
 Alpha virt. eigenvalues --    6.58476   6.59014   6.59018   6.59224   6.59375
 Alpha virt. eigenvalues --    6.59542   6.59631   6.59662   6.60045   6.60076
 Alpha virt. eigenvalues --    6.60277   6.60568   6.61566   6.62882   6.65454
 Alpha virt. eigenvalues --    6.65579   6.70428   6.72145   6.72685   6.76410
 Alpha virt. eigenvalues --    6.77180   6.78573   6.80115   6.85689   6.91851
 Alpha virt. eigenvalues --    6.92114   7.10635   7.14537   7.15895   7.17949
 Alpha virt. eigenvalues --    7.19875   7.22288   7.25470   7.35181   7.35239
 Alpha virt. eigenvalues --    7.37665   7.38466   7.39692   7.40753   7.45020
 Alpha virt. eigenvalues --    7.46536   7.51170   7.52553   7.95391   8.17217
 Alpha virt. eigenvalues --    9.51406   9.59681   9.60735   9.61743   9.68069
 Alpha virt. eigenvalues --    9.75592  10.30050  11.10748  11.56960  12.20156
 Alpha virt. eigenvalues --   12.35179  13.30892  13.52405
          Condensed to atoms (all electrons):
               1          2          3          4          5          6
     1  C    4.216870   0.428870   0.428871   0.465849   0.180840  -0.006586
     2  F    0.428870   8.747045  -0.044509  -0.039017  -0.022943   0.001578
     3  F    0.428871  -0.044509   8.747042  -0.039017  -0.022943   0.001579
     4  F    0.465849  -0.039017  -0.039017   8.725601  -0.065732   0.013194
     5  C    0.180840  -0.022943  -0.022943  -0.065732   5.049987   0.282827
     6  C   -0.006586   0.001578   0.001579   0.013194   0.282827   5.657149
     7  C    0.002517  -0.000084  -0.000084   0.000791   0.004794   0.151038
     8  O    0.000239   0.000000   0.000000  -0.000000  -0.004194  -0.066565
     9  C   -0.000094  -0.000000  -0.000000  -0.000006  -0.001842  -0.026014
    10  F   -0.000002   0.000000   0.000000   0.000000   0.000477   0.008487
    11  F   -0.000002   0.000000   0.000000   0.000000   0.000479   0.008499
    12  F    0.000000   0.000000   0.000000   0.000000  -0.000076   0.002997
    13  H   -0.002313   0.000198   0.000198   0.009643  -0.030790   0.363519
    14  O   -0.008160  -0.003259  -0.003259   0.000296   0.441292  -0.040622
    15  H    0.002031  -0.000088  -0.000088  -0.000021  -0.044589  -0.014562
               7          8          9         10         11         12
     1  C    0.002517   0.000239  -0.000094  -0.000002  -0.000002   0.000000
     2  F   -0.000084   0.000000  -0.000000   0.000000   0.000000   0.000000
     3  F   -0.000084   0.000000  -0.000000   0.000000   0.000000   0.000000
     4  F    0.000791  -0.000000  -0.000006   0.000000   0.000000   0.000000
     5  C    0.004794  -0.004194  -0.001842   0.000477   0.000479  -0.000076
     6  C    0.151038  -0.066565  -0.026014   0.008487   0.008499   0.002997
     7  C    4.845132   0.658865   0.239643  -0.045554  -0.045575  -0.029477
     8  O    0.658865   7.785630  -0.026141  -0.000165  -0.000163  -0.002303
     9  C    0.239643  -0.026141   4.263825   0.410129   0.410122   0.469821
    10  F   -0.045554  -0.000165   0.410129   8.786563  -0.042769  -0.037634
    11  F   -0.045575  -0.000163   0.410122  -0.042769   8.786565  -0.037626
    12  F   -0.029477  -0.002303   0.469821  -0.037634  -0.037626   8.685246
    13  H   -0.027001   0.001960   0.005362   0.001348   0.001357   0.000111
    14  O   -0.005662  -0.025647   0.000104  -0.000000  -0.000000   0.000000
    15  H   -0.002463   0.066338   0.000679  -0.000011  -0.000011   0.000003
              13         14         15
     1  C   -0.002313  -0.008160   0.002031
     2  F    0.000198  -0.003259  -0.000088
     3  F    0.000198  -0.003259  -0.000088
     4  F    0.009643   0.000296  -0.000021
     5  C   -0.030790   0.441292  -0.044589
     6  C    0.363519  -0.040622  -0.014562
     7  C   -0.027001  -0.005662  -0.002463
     8  O    0.001960  -0.025647   0.066338
     9  C    0.005362   0.000104   0.000679
    10  F    0.001348  -0.000000  -0.000011
    11  F    0.001357  -0.000000  -0.000011
    12  F    0.000111   0.000000   0.000003
    13  H    0.520596   0.001849  -0.000188
    14  O    0.001849   7.734269   0.291430
    15  H   -0.000188   0.291430   0.359735
 Mulliken charges:
               1
     1  C    0.291070
     2  F   -0.067792
     3  F   -0.067790
     4  F   -0.071582
     5  C    0.232412
     6  C   -0.336519
     7  C    0.253122
     8  O   -0.387854
     9  C    0.254411
    10  F   -0.080868
    11  F   -0.080875
    12  F   -0.051061
    13  H    0.154150
    14  O   -0.382629
    15  H    0.341806
 Sum of Mulliken charges =  -0.00000
 Mulliken charges with hydrogens summed into heavy atoms:
               1
     1  C    0.291070
     2  F   -0.067792
     3  F   -0.067790
     4  F   -0.071582
     5  C    0.232412
     6  C   -0.182368
     7  C    0.253122
     8  O   -0.387854
     9  C    0.254411
    10  F   -0.080868
    11  F   -0.080875
    12  F   -0.051061
    14  O   -0.040824
 Electronic spatial extent (au):  <R**2>=           2810.2502
 Charge=             -0.0000 electrons
 Dipole moment (field-independent basis, Debye):
    X=             -0.2914    Y=             -0.6581    Z=             -0.0003  Tot=              0.7197
 Quadrupole moment (field-independent basis, Debye-Ang):
   XX=            -75.4927   YY=            -69.2523   ZZ=            -67.8353
   XY=             -0.8352   XZ=              0.0006   YZ=             -0.0001
 Traceless Quadrupole moment (field-independent basis, Debye-Ang):
   XX=             -4.6326   YY=              1.6078   ZZ=              3.0248
   XY=             -0.8352   XZ=              0.0006   YZ=             -0.0001
 Octapole moment (field-independent basis, Debye-Ang**2):
  XXX=             -0.3087  YYY=            -11.4984  ZZZ=             -0.0012  XYY=             -3.6109
  XXY=             -9.2096  XXZ=             -0.0007  XZZ=              1.0231  YZZ=             -1.5599
  YYZ=              0.0007  XYZ=              0.0007
 Hexadecapole moment (field-independent basis, Debye-Ang**3):
 XXXX=          -2218.4061 YYYY=           -425.6969 ZZZZ=           -179.9940 XXXY=             -1.2368
 XXXZ=              0.1149 YYYX=            -11.0380 YYYZ=             -0.0180 ZZZX=              0.1103
 ZZZY=             -0.0207 XXYY=           -453.5788 XXZZ=           -398.5929 YYZZ=           -102.0231
 XXYZ=             -0.0060 YYXZ=              0.0390 ZZXY=              4.0056
 N-N= 8.828282909139D+02 E-N=-3.993293047542D+03  KE= 9.356277945328D+02
 Calling FoFJK, ICntrl=      2127 FMM=F ISym2X=0 I1Cent= 0 IOpClX= 0 NMat=1 NMatS=1 NMatT=0.
 ***** Axes restored to original set *****
 -------------------------------------------------------------------
 Center     Atomic                   Forces (Hartrees/Bohr)
 Number     Number              X              Y              Z
 -------------------------------------------------------------------
      1        6          -0.012001367   -0.008725332   -0.000000170
      2        9           0.004146178   -0.002319082    0.007414743
      3        9           0.004143855   -0.002316263   -0.007416442
      4        9          -0.001677689    0.009636586    0.000001956
      5        6           0.002633221    0.010701733    0.000001500
      6        6          -0.001110300    0.002463107    0.000000536
      7        6          -0.003435196    0.021033908    0.000005332
      8        8          -0.004454146   -0.018192156   -0.000003119
      9        6           0.012271598   -0.005419592   -0.000004378
     10        9           0.000668273    0.004242663   -0.006992741
     11        9           0.000672171    0.004246742    0.006990665
     12        9          -0.007865395   -0.006693431    0.000004935
     13        1          -0.000168049    0.001615024    0.000000144
     14        8           0.008872411   -0.007257920   -0.000003065
     15        1          -0.002695563   -0.003015986    0.000000104
 -------------------------------------------------------------------
 Cartesian Forces:  Max     0.021033908 RMS     0.006627281

 GradGradGradGradGradGradGradGradGradGradGradGradGradGradGradGradGradGrad
 Berny optimization.
 FormGI is forming the generalized inverse of G from B-inverse, IUseBI=4.
 Internal  Forces:  Max     0.018380489 RMS     0.004842484
 Search for a local minimum.
 Step number   1 out of a maximum of   68
 All quantities printed in internal units (Hartrees-Bohrs-Radians)
 Mixed Optimization -- RFO/linear search
 Second derivative matrix not updated -- first step.
 ITU=  0
     Eigenvalues ---    0.00369   0.00653   0.00878   0.01549   0.01753
     Eigenvalues ---    0.02082   0.02621   0.02655   0.10743   0.11011
     Eigenvalues ---    0.11200   0.11305   0.16000   0.16000   0.22000
     Eigenvalues ---    0.25000   0.25000   0.25000   0.25000   0.25000
     Eigenvalues ---    0.25000   0.25000   0.25000   0.25000   0.25000
     Eigenvalues ---    0.29423   0.31502   0.35869   0.39473   0.48202
     Eigenvalues ---    0.53000   0.55052   0.55053   0.55846   0.56390
     Eigenvalues ---    0.56391   0.58901   0.60174   0.86425
 RFO step:  Lambda=-3.00314566D-03 EMin= 3.69027903D-03
 Linear search not attempted -- first point.
 Iteration  1 RMS(Cart)=  0.05411801 RMS(Int)=  0.00087345
 Iteration  2 RMS(Cart)=  0.00121620 RMS(Int)=  0.00000407
 Iteration  3 RMS(Cart)=  0.00000023 RMS(Int)=  0.00000407
 Variable       Old X    -DE/DX   Delta X   Delta X   Delta X     New X
                                 (Linear)    (Quad)   (Total)
    R1        2.53917  -0.00878   0.00000  -0.01550  -0.01550   2.52367
    R2        2.53917  -0.00878   0.00000  -0.01550  -0.01550   2.52367
    R3        2.54388  -0.00977   0.00000  -0.01740  -0.01740   2.52648
    R4        2.85066   0.00651   0.00000   0.02048   0.02048   2.87114
    R5        2.56954  -0.00459   0.00000  -0.00861  -0.00861   2.56093
    R6        2.50803  -0.01098   0.00000  -0.01815  -0.01815   2.48988
    R7        2.72276  -0.00223   0.00000  -0.00560  -0.00560   2.71716
    R8        2.04286  -0.00162   0.00000  -0.00447  -0.00447   2.03839
    R9        2.34625  -0.01838   0.00000  -0.02119  -0.02119   2.32506
   R10        2.89129   0.00679   0.00000   0.02285   0.02285   2.91414
   R11        2.55085  -0.00813   0.00000  -0.01468  -0.01468   2.53617
   R12        2.55086  -0.00813   0.00000  -0.01468  -0.01468   2.53618
   R13        2.51821  -0.01030   0.00000  -0.01740  -0.01740   2.50080
   R14        1.88424  -0.00369   0.00000  -0.00760  -0.00760   1.87664
    A1        1.88942  -0.00092   0.00000  -0.00454  -0.00454   1.88488
    A2        1.88984  -0.00053   0.00000  -0.00164  -0.00164   1.88819
    A3        1.92553   0.00066   0.00000   0.00236   0.00236   1.92789
    A4        1.88984  -0.00053   0.00000  -0.00164  -0.00164   1.88819
    A5        1.92553   0.00066   0.00000   0.00236   0.00236   1.92789
    A6        1.94229   0.00058   0.00000   0.00275   0.00275   1.94504
    A7        2.13872   0.00383   0.00000   0.01512   0.01512   2.15383
    A8        1.94193   0.00570   0.00000   0.02253   0.02253   1.96446
    A9        2.20254  -0.00953   0.00000  -0.03765  -0.03765   2.16489
   A10        2.07490  -0.00687   0.00000  -0.03082  -0.03082   2.04408
   A11        2.09890   0.00330   0.00000   0.01460   0.01460   2.11350
   A12        2.10938   0.00357   0.00000   0.01622   0.01622   2.12560
   A13        2.17990  -0.00586   0.00000  -0.02315  -0.02315   2.15675
   A14        2.02855   0.00327   0.00000   0.01293   0.01293   2.04148
   A15        2.07473   0.00259   0.00000   0.01022   0.01022   2.08495
   A16        1.91209   0.00153   0.00000   0.00599   0.00598   1.91807
   A17        1.91213   0.00153   0.00000   0.00600   0.00599   1.91812
   A18        1.95442   0.00062   0.00000   0.00256   0.00255   1.95697
   A19        1.88163  -0.00155   0.00000  -0.00638  -0.00640   1.87523
   A20        1.90105  -0.00112   0.00000  -0.00432  -0.00433   1.89672
   A21        1.90105  -0.00112   0.00000  -0.00432  -0.00432   1.89672
   A22        1.86129  -0.00313   0.00000  -0.01922  -0.01922   1.84207
    D1       -2.09815  -0.00015   0.00000  -0.00132  -0.00132  -2.09947
    D2        1.04343  -0.00015   0.00000  -0.00132  -0.00132   1.04212
    D3        2.09820   0.00015   0.00000   0.00131   0.00131   2.09951
    D4       -1.04340   0.00015   0.00000   0.00131   0.00131  -1.04208
    D5        0.00002  -0.00000   0.00000  -0.00000  -0.00000   0.00002
    D6       -3.14158  -0.00000   0.00000  -0.00000  -0.00000  -3.14158
    D7       -3.14157  -0.00000   0.00000  -0.00001  -0.00001  -3.14158
    D8        0.00000   0.00000   0.00000   0.00000   0.00000   0.00001
    D9        0.00003  -0.00000   0.00000  -0.00001  -0.00001   0.00002
   D10       -3.14158   0.00000   0.00000   0.00000   0.00000  -3.14158
   D11       -3.14158  -0.00000   0.00000  -0.00001  -0.00001  -3.14159
   D12        0.00001  -0.00000   0.00000  -0.00001  -0.00001   0.00000
   D13       -0.00006  -0.00000   0.00000  -0.00001  -0.00001  -0.00007
   D14        3.14145   0.00000   0.00000   0.00003   0.00003   3.14148
   D15        3.14156  -0.00000   0.00000  -0.00002  -0.00002   3.14154
   D16       -0.00012   0.00000   0.00000   0.00001   0.00001  -0.00010
   D17       -1.03088   0.00004   0.00000   0.00028   0.00028  -1.03060
   D18        1.02991  -0.00004   0.00000  -0.00037  -0.00037   1.02954
   D19        3.14112   0.00000   0.00000  -0.00004  -0.00004   3.14108
   D20        2.11064   0.00004   0.00000   0.00032   0.00031   2.11095
   D21       -2.11176  -0.00004   0.00000  -0.00033  -0.00033  -2.11209
   D22       -0.00055   0.00000   0.00000  -0.00000  -0.00000  -0.00055
         Item               Value     Threshold  Converged?
 Maximum Force            0.018380     0.000450     NO 
 RMS     Force            0.004842     0.000300     NO 
 Maximum Displacement     0.173757     0.001800     NO 
 RMS     Displacement     0.054124     0.001200     NO 
 Predicted change in Energy=-1.514165D-03
 GradGradGradGradGradGradGradGradGradGradGradGradGradGradGradGradGradGrad

                          Input orientation:                          
 ---------------------------------------------------------------------
 Center     Atomic      Atomic             Coordinates (Angstroms)
 Number     Number       Type             X           Y           Z
 ---------------------------------------------------------------------
      1          6           0       -2.525305   -0.300397    0.000223
      2          9           0       -3.227924    0.050200   -1.080003
      3          9           0       -3.227631    0.049788    1.080772
      4          9           0       -2.395796   -1.631063   -0.000049
      5          6           0       -1.171577    0.389399    0.000171
      6          6           0        0.006830   -0.279843   -0.000137
      7          6           0        1.208747    0.509356   -0.000126
      8          8           0        1.214831    1.739710    0.000078
      9          6           0        2.547698   -0.255679   -0.000323
     10          9           0        2.622382   -1.045953    1.081843
     11          9           0        2.621712   -1.046688   -1.082000
     12          9           0        3.588651    0.561462   -0.000920
     13          1           0        0.035095   -1.358142   -0.000372
     14          8           0       -1.273709    1.703021    0.000452
     15          1           0       -0.340457    2.042483    0.000385
 ---------------------------------------------------------------------
                    Distance matrix (angstroms):
                    1          2          3          4          5
     1  C    0.000000
     2  F    1.335470   0.000000
     3  F    1.335469   2.160775   0.000000
     4  F    1.336954   2.164575   2.164575   0.000000
     5  C    1.519341   2.347422   2.347423   2.362409   0.000000
     6  C    2.532219   3.426174   3.426188   2.756521   1.355186
     7  C    3.820844   4.589227   4.589226   4.192150   2.383345
     8  O    4.260359   4.874330   4.874342   4.939508   2.741950
     9  C    5.073200   5.883628   5.883579   5.131258   3.774802
    10  F    5.312668   6.332552   5.951748   5.166716   4.198140
    11  F    5.312245   5.951589   6.332034   5.165994   4.197914
    12  F    6.174404   6.920368   6.920518   6.373442   4.763337
    13  H    2.770284   3.714340   3.714367   2.446163   2.123666
    14  O    2.362240   2.778157   2.778144   3.517840   1.317587
    15  H    3.203538   3.670681   3.670674   4.209437   1.850257
                    6          7          8          9         10
     6  C    0.000000
     7  C    1.437860   0.000000
     8  O    2.353267   1.230369   0.000000
     9  C    2.540983   1.542099   2.399606   0.000000
    10  F    2.932357   2.363897   3.303231   1.342085   0.000000
    11  F    2.931908   2.363936   3.303667   1.342087   2.163843
    12  F    3.679298   2.380474   2.650148   1.323369   2.165603
    13  H    1.078669   2.205677   3.314886   2.743829   2.821827
    14  O    2.360409   2.754528   2.488811   4.294142   4.889355
    15  H    2.348150   2.179567   1.584485   3.690933   4.414341
                   11         12         13         14         15
    11  F    0.000000
    12  F    2.165606   0.000000
    13  H    2.820906   4.038891   0.000000
    14  O    4.889469   4.994567   3.329218   0.000000
    15  H    4.414632   4.198966   3.421300   0.993073   0.000000
 Stoichiometry    C5H2F6O2
 Framework group  C1[X(C5H2F6O2)]
 Deg. of freedom    39
 Full point group                 C1      NOp   1
 Largest Abelian subgroup         C1      NOp   1
 Largest concise Abelian subgroup C1      NOp   1
                         Standard orientation:                         
 ---------------------------------------------------------------------
 Center     Atomic      Atomic             Coordinates (Angstroms)
 Number     Number       Type             X           Y           Z
 ---------------------------------------------------------------------
      1          6           0       -2.520840   -0.303374    0.000003
      2          9           0       -3.222331    0.049066   -1.080356
      3          9           0       -3.222272    0.049007    1.080419
      4          9           0       -2.395158   -1.634407   -0.000038
      5          6           0       -1.165134    0.382526   -0.000016
      6          6           0        0.011344   -0.290102   -0.000088
      7          6           0        1.215525    0.495638   -0.000075
      8          8           0        1.225148    1.725969   -0.000071
      9          6           0        2.552270   -0.273245   -0.000003
     10          9           0        2.624565   -1.063554    1.082300
     11          9           0        2.624126   -1.064640   -1.081543
     12          9           0        3.595569    0.540899   -0.000621
     13          1           0        0.036507   -1.368478   -0.000143
     14          8           0       -1.263488    1.696437    0.000040
     15          1           0       -0.329263    2.033214    0.000018
 ---------------------------------------------------------------------
 Rotational constants (GHZ):           1.7094948           0.3777822           0.3471663
 Standard basis: GTBas3 (6D, 7F)
 There are   413 symmetry adapted cartesian basis functions of A   symmetry.
 There are   374 symmetry adapted basis functions of A   symmetry.
   374 basis functions,   586 primitive gaussians,   413 cartesian basis functions
    51 alpha electrons       51 beta electrons
       nuclear repulsion energy       885.6382911517 Hartrees.
 NAtoms=   15 NActive=   15 NUniq=   15 SFac= 1.00D+00 NAtFMM=   60 NAOKFM=F Big=F
 Integral buffers will be    131072 words long.
 Raffenetti 2 integral format.
 Two-electron integral symmetry is turned on.
 One-electron integrals computed using PRISM.
 NBasis=   374 RedAO= T EigKep=  3.05D-04  NBF=   374
 NBsUse=   374 1.00D-06 EigRej= -1.00D+00 NBFU=   374
 Initial guess from the checkpoint file:  "/home/artemiy/opt/gaussian/scr/Gau-21554.chk"
 B after Tr=    -0.000000   -0.000000   -0.000000
         Rot=    1.000000    0.000082    0.000054    0.000600 Ang=   0.07 deg.
 ExpMin= 1.61D-01 ExpMax= 7.00D+03 ExpMxC= 1.05D+03 IAcc=2 IRadAn=         4 AccDes= 0.00D+00
 Harris functional with IExCor=  402 and IRadAn=       4 diagonalized for initial guess.
 HarFok:  IExCor=  402 AccDes= 0.00D+00 IRadAn=         4 IDoV= 1 UseB2=F ITyADJ=14
 ICtDFT=  3500011 ScaDFX=  1.000000  1.000000  1.000000  1.000000
 FoFCou: FMM=F IPFlag=           0 FMFlag=      100000 FMFlg1=           0
         NFxFlg=           0 DoJE=T BraDBF=F KetDBF=T FulRan=T
         wScrn=  0.000000 ICntrl=       500 IOpCl=  0 I1Cent=   200000004 NGrid=           0
         NMat0=    1 NMatS0=      1 NMatT0=    0 NMatD0=    1 NMtDS0=    0 NMtDT0=    0
 Petite list used in FoFCou.
 Requested convergence on RMS density matrix=1.00D-08 within 128 cycles.
 Requested convergence on MAX density matrix=1.00D-06.
 Requested convergence on             energy=1.00D-06.
 No special actions if energy rises.
 Integral accuracy reduced to 1.0D-05 until final iterations.
 Initial convergence to 1.0D-05 achieved.  Increase integral accuracy.
 SCF Done:  E(RB3LYP) =  -941.273456564     A.U. after   12 cycles
            NFock= 12  Conv=0.54D-08     -V/T= 2.0058
 Calling FoFJK, ICntrl=      2127 FMM=F ISym2X=0 I1Cent= 0 IOpClX= 0 NMat=1 NMatS=1 NMatT=0.
 ***** Axes restored to original set *****
 -------------------------------------------------------------------
 Center     Atomic                   Forces (Hartrees/Bohr)
 Number     Number              X              Y              Z
 -------------------------------------------------------------------
      1        6          -0.004913829   -0.003103743   -0.000000248
      2        9           0.001557301    0.000374102    0.000528921
      3        9           0.001557133    0.000374299   -0.000528999
      4        9           0.001562149    0.001840887    0.000000156
      5        6          -0.005153125    0.009918298    0.000002817
      6        6           0.004906546   -0.003985495   -0.000000799
      7        6          -0.001905590   -0.002542270   -0.000003696
      8        8           0.006968859    0.001858722    0.000001416
      9        6           0.005236651   -0.003367710   -0.000000655
     10        9          -0.001304506    0.001259326   -0.000641271
     11        9          -0.001304971    0.001260926    0.000642864
     12        9          -0.001849555    0.000740122    0.000000100
     13        1           0.000344663    0.000030868    0.000000051
     14        8          -0.012120775   -0.008996761    0.000000242
     15        1           0.006419051    0.004338429   -0.000000899
 -------------------------------------------------------------------
 Cartesian Forces:  Max     0.012120775 RMS     0.003683103

 GradGradGradGradGradGradGradGradGradGradGradGradGradGradGradGradGradGrad
 Berny optimization.
 Using GEDIIS/GDIIS optimizer.
 FormGI is forming the generalized inverse of G from B-inverse, IUseBI=4.
 Internal  Forces:  Max     0.016481642 RMS     0.004420852
 Search for a local minimum.
 Step number   2 out of a maximum of   68
 All quantities printed in internal units (Hartrees-Bohrs-Radians)
 Mixed Optimization -- RFO/linear search
 Update second derivatives using D2CorX and points    1    2
 DE= -6.73D-04 DEPred=-1.51D-03 R= 4.45D-01
 Trust test= 4.45D-01 RLast= 9.16D-02 DXMaxT set to 3.00D-01
 ITU=  0  0
 Use linear search instead of GDIIS.
     Eigenvalues ---    0.00369   0.00653   0.00866   0.01549   0.01718
     Eigenvalues ---    0.02081   0.02621   0.02655   0.10667   0.10957
     Eigenvalues ---    0.11166   0.11207   0.15997   0.16060   0.22245
     Eigenvalues ---    0.24497   0.25000   0.25000   0.25000   0.25000
     Eigenvalues ---    0.25000   0.25000   0.25000   0.25000   0.27322
     Eigenvalues ---    0.30780   0.35786   0.38391   0.42255   0.44907
     Eigenvalues ---    0.49881   0.55052   0.55396   0.56083   0.56390
     Eigenvalues ---    0.58164   0.59531   0.71314   0.89649
 RFO step:  Lambda=-1.11629661D-03 EMin= 3.69027899D-03
 Quartic linear search produced a step of -0.35229.
 Iteration  1 RMS(Cart)=  0.03904618 RMS(Int)=  0.00039835
 Iteration  2 RMS(Cart)=  0.00063432 RMS(Int)=  0.00000162
 Iteration  3 RMS(Cart)=  0.00000005 RMS(Int)=  0.00000162
 Variable       Old X    -DE/DX   Delta X   Delta X   Delta X     New X
                                 (Linear)    (Quad)   (Total)
    R1        2.52367  -0.00115   0.00546  -0.01316  -0.00770   2.51597
    R2        2.52367  -0.00115   0.00546  -0.01316  -0.00770   2.51597
    R3        2.52648  -0.00168   0.00613  -0.01525  -0.00912   2.51735
    R4        2.87114   0.00044  -0.00722   0.01738   0.01017   2.88131
    R5        2.56093   0.01199   0.00303   0.00801   0.01104   2.57197
    R6        2.48988  -0.00420   0.00639  -0.01833  -0.01193   2.47795
    R7        2.71716   0.00445   0.00197   0.00287   0.00484   2.72201
    R8        2.03839  -0.00002   0.00158  -0.00359  -0.00201   2.03638
    R9        2.32506   0.00189   0.00747  -0.01441  -0.00694   2.31812
   R10        2.91414   0.00073  -0.00805   0.02012   0.01207   2.92622
   R11        2.53617  -0.00133   0.00517  -0.01280  -0.00763   2.52855
   R12        2.53618  -0.00133   0.00517  -0.01280  -0.00763   2.52855
   R13        2.50080  -0.00100   0.00613  -0.01436  -0.00823   2.49258
   R14        1.87664   0.00752   0.00268   0.00419   0.00687   1.88351
    A1        1.88488   0.00160   0.00160   0.00076   0.00235   1.88723
    A2        1.88819   0.00185   0.00058   0.00321   0.00379   1.89198
    A3        1.92789  -0.00131  -0.00083  -0.00132  -0.00215   1.92574
    A4        1.88819   0.00185   0.00058   0.00321   0.00379   1.89198
    A5        1.92789  -0.00131  -0.00083  -0.00132  -0.00215   1.92574
    A6        1.94504  -0.00244  -0.00097  -0.00422  -0.00519   1.93984
    A7        2.15383  -0.00775  -0.00533  -0.00746  -0.01278   2.14105
    A8        1.96446  -0.00542  -0.00794   0.00467  -0.00326   1.96120
    A9        2.16489   0.01317   0.01326   0.00278   0.01605   2.18093
   A10        2.04408   0.01648   0.01086   0.02227   0.03313   2.07721
   A11        2.11350  -0.00789  -0.00514  -0.01044  -0.01559   2.09791
   A12        2.12560  -0.00859  -0.00571  -0.01183  -0.01754   2.10806
   A13        2.15675   0.01025   0.00815   0.00726   0.01542   2.17217
   A14        2.04148  -0.00432  -0.00455  -0.00043  -0.00498   2.03650
   A15        2.08495  -0.00593  -0.00360  -0.00684  -0.01044   2.07451
   A16        1.91807  -0.00159  -0.00211   0.00095  -0.00115   1.91692
   A17        1.91812  -0.00159  -0.00211   0.00096  -0.00115   1.91697
   A18        1.95697  -0.00226  -0.00090  -0.00392  -0.00482   1.95215
   A19        1.87523   0.00175   0.00225  -0.00035   0.00191   1.87714
   A20        1.89672   0.00196   0.00153   0.00125   0.00278   1.89950
   A21        1.89672   0.00196   0.00152   0.00126   0.00278   1.89950
   A22        1.84207   0.00353   0.00677  -0.00293   0.00384   1.84590
    D1       -2.09947   0.00016   0.00046  -0.00039   0.00008  -2.09940
    D2        1.04212   0.00016   0.00046  -0.00039   0.00007   1.04219
    D3        2.09951  -0.00016  -0.00046   0.00036  -0.00010   2.09941
    D4       -1.04208  -0.00016  -0.00046   0.00035  -0.00011  -1.04219
    D5        0.00002   0.00000   0.00000  -0.00002  -0.00001   0.00000
    D6       -3.14158  -0.00000   0.00000  -0.00002  -0.00002   3.14159
    D7       -3.14158   0.00000   0.00000  -0.00001  -0.00000  -3.14158
    D8        0.00001   0.00000  -0.00000   0.00001   0.00001   0.00002
    D9        0.00002   0.00000   0.00000  -0.00000   0.00000   0.00002
   D10       -3.14158   0.00000  -0.00000   0.00002   0.00002  -3.14156
   D11       -3.14159   0.00000   0.00000   0.00001   0.00001  -3.14158
   D12        0.00000   0.00000   0.00000   0.00000   0.00001   0.00001
   D13       -0.00007   0.00000   0.00000  -0.00001  -0.00001  -0.00007
   D14        3.14148  -0.00000  -0.00001   0.00008   0.00007   3.14155
   D15        3.14154   0.00000   0.00001  -0.00003  -0.00002   3.14151
   D16       -0.00010   0.00000  -0.00001   0.00005   0.00005  -0.00005
   D17       -1.03060  -0.00012  -0.00010  -0.00059  -0.00069  -1.03129
   D18        1.02954   0.00012   0.00013   0.00013   0.00025   1.02980
   D19        3.14108  -0.00000   0.00001  -0.00023  -0.00022   3.14087
   D20        2.11095  -0.00012  -0.00011  -0.00051  -0.00062   2.11033
   D21       -2.11209   0.00012   0.00012   0.00021   0.00032  -2.11177
   D22       -0.00055  -0.00000   0.00000  -0.00015  -0.00015  -0.00070
         Item               Value     Threshold  Converged?
 Maximum Force            0.016482     0.000450     NO 
 RMS     Force            0.004421     0.000300     NO 
 Maximum Displacement     0.119384     0.001800     NO 
 RMS     Displacement     0.038922     0.001200     NO 
 Predicted change in Energy=-9.180227D-04
 GradGradGradGradGradGradGradGradGradGradGradGradGradGradGradGradGradGrad

                          Input orientation:                          
 ---------------------------------------------------------------------
 Center     Atomic      Atomic             Coordinates (Angstroms)
 Number     Number       Type             X           Y           Z
 ---------------------------------------------------------------------
      1          6           0       -2.523304   -0.313431    0.000183
      2          9           0       -3.230432    0.019453   -1.077672
      3          9           0       -3.230180    0.018975    1.078350
      4          9           0       -2.352989   -1.634624   -0.000131
      5          6           0       -1.183230    0.413879    0.000188
      6          6           0        0.009029   -0.242561   -0.000102
      7          6           0        1.228600    0.523903   -0.000056
      8          8           0        1.278007    1.749603    0.000155
      9          6           0        2.553551   -0.277543   -0.000332
     10          9           0        2.607393   -1.065969    1.079418
     11          9           0        2.606425   -1.066936   -1.079423
     12          9           0        3.607224    0.515912   -0.001154
     13          1           0        0.034700   -1.319859   -0.000368
     14          8           0       -1.323067    1.717674    0.000490
     15          1           0       -0.398181    2.089180    0.000452
 ---------------------------------------------------------------------
                    Distance matrix (angstroms):
                    1          2          3          4          5
     1  C    0.000000
     2  F    1.331395   0.000000
     3  F    1.331394   2.156021   0.000000
     4  F    1.332126   2.160318   2.160318   0.000000
     5  C    1.524722   2.346995   2.346995   2.358962   0.000000
     6  C    2.533325   3.424020   3.424024   2.741710   1.361027
     7  C    3.844205   4.615051   4.615044   4.181749   2.414339
     8  O    4.325052   4.947843   4.947861   4.963580   2.800330
     9  C    5.076982   5.890953   5.890927   5.090757   3.800210
    10  F    5.296708   6.317545   5.937539   5.108247   4.209931
    11  F    5.295984   5.937099   6.316736   5.107145   4.209496
    12  F    6.186371   6.939662   6.939912   6.336320   4.791541
    13  H    2.748870   3.689909   3.689926   2.408348   2.118774
    14  O    2.359228   2.772080   2.772083   3.506942   1.311273
    15  H    3.207599   3.669846   3.669855   4.205710   1.850119
                    6          7          8          9         10
     6  C    0.000000
     7  C    1.440423   0.000000
     8  O    2.361995   1.226695   0.000000
     9  C    2.544762   1.548486   2.395064   0.000000
    10  F    2.931699   2.365170   3.295379   1.338049   0.000000
    11  F    2.931040   2.365207   3.295918   1.338049   2.158842
    12  F    3.677266   2.378638   2.635763   1.319015   2.160937
    13  H    1.077605   2.196555   3.311708   2.725991   2.801633
    14  O    2.370021   2.817107   2.601269   4.359937   4.935714
    15  H    2.367031   2.257545   1.710239   3.783398   4.489166
                   11         12         13         14         15
    11  F    0.000000
    12  F    2.160942   0.000000
    13  H    2.800374   4.016588   0.000000
    14  O    4.935703   5.074643   3.327182   0.000000
    15  H    4.489416   4.303306   3.436414   0.996710   0.000000
 Stoichiometry    C5H2F6O2
 Framework group  C1[X(C5H2F6O2)]
 Deg. of freedom    39
 Full point group                 C1      NOp   1
 Largest Abelian subgroup         C1      NOp   1
 Largest concise Abelian subgroup C1      NOp   1
                         Standard orientation:                         
 ---------------------------------------------------------------------
 Center     Atomic      Atomic             Coordinates (Angstroms)
 Number     Number       Type             X           Y           Z
 ---------------------------------------------------------------------
      1          6           0       -2.522122   -0.313290    0.000001
      2          9           0       -3.228845    0.020009   -1.077991
      3          9           0       -3.228811    0.019956    1.078030
      4          9           0       -2.352981   -1.634635   -0.000035
      5          6           0       -1.181402    0.412828   -0.000003
      6          6           0        0.010274   -0.244671   -0.000043
      7          6           0        1.230525    0.520709   -0.000025
      8          8           0        1.281021    1.746364   -0.000052
      9          6           0        2.554763   -0.281915   -0.000009
     10          9           0        2.607796   -1.070176    1.079901
     11          9           0        2.607044   -1.071568   -1.078940
     12          9           0        3.609142    0.510603   -0.000882
     13          1           0        0.034988   -1.321992   -0.000094
     14          8           0       -1.320079    1.716747    0.000027
     15          1           0       -0.394864    2.087431    0.000009
 ---------------------------------------------------------------------
 Rotational constants (GHZ):           1.6965861           0.3773189           0.3460509
 Standard basis: GTBas3 (6D, 7F)
 There are   413 symmetry adapted cartesian basis functions of A   symmetry.
 There are   374 symmetry adapted basis functions of A   symmetry.
   374 basis functions,   586 primitive gaussians,   413 cartesian basis functions
    51 alpha electrons       51 beta electrons
       nuclear repulsion energy       884.6062228338 Hartrees.
 NAtoms=   15 NActive=   15 NUniq=   15 SFac= 1.00D+00 NAtFMM=   60 NAOKFM=F Big=F
 Integral buffers will be    131072 words long.
 Raffenetti 2 integral format.
 Two-electron integral symmetry is turned on.
 One-electron integrals computed using PRISM.
 NBasis=   374 RedAO= T EigKep=  3.13D-04  NBF=   374
 NBsUse=   374 1.00D-06 EigRej= -1.00D+00 NBFU=   374
 Initial guess from the checkpoint file:  "/home/artemiy/opt/gaussian/scr/Gau-21554.chk"
 B after Tr=    -0.000000    0.000000    0.000000
         Rot=    1.000000    0.000021   -0.000004   -0.000509 Ang=   0.06 deg.
 ExpMin= 1.61D-01 ExpMax= 7.00D+03 ExpMxC= 1.05D+03 IAcc=2 IRadAn=         4 AccDes= 0.00D+00
 Harris functional with IExCor=  402 and IRadAn=       4 diagonalized for initial guess.
 HarFok:  IExCor=  402 AccDes= 0.00D+00 IRadAn=         4 IDoV= 1 UseB2=F ITyADJ=14
 ICtDFT=  3500011 ScaDFX=  1.000000  1.000000  1.000000  1.000000
 FoFCou: FMM=F IPFlag=           0 FMFlag=      100000 FMFlg1=           0
         NFxFlg=           0 DoJE=T BraDBF=F KetDBF=T FulRan=T
         wScrn=  0.000000 ICntrl=       500 IOpCl=  0 I1Cent=   200000004 NGrid=           0
         NMat0=    1 NMatS0=      1 NMatT0=    0 NMatD0=    1 NMtDS0=    0 NMtDT0=    0
 Petite list used in FoFCou.
 Requested convergence on RMS density matrix=1.00D-08 within 128 cycles.
 Requested convergence on MAX density matrix=1.00D-06.
 Requested convergence on             energy=1.00D-06.
 No special actions if energy rises.
 Integral accuracy reduced to 1.0D-05 until final iterations.
 Initial convergence to 1.0D-05 achieved.  Increase integral accuracy.
 SCF Done:  E(RB3LYP) =  -941.273969732     A.U. after   12 cycles
            NFock= 12  Conv=0.45D-08     -V/T= 2.0058
 Calling FoFJK, ICntrl=      2127 FMM=F ISym2X=0 I1Cent= 0 IOpClX= 0 NMat=1 NMatS=1 NMatT=0.
 ***** Axes restored to original set *****
 -------------------------------------------------------------------
 Center     Atomic                   Forces (Hartrees/Bohr)
 Number     Number              X              Y              Z
 -------------------------------------------------------------------
      1        6           0.001866184    0.000047411   -0.000000938
      2        9          -0.000823831    0.001086537   -0.002372752
      3        9          -0.000823155    0.001085520    0.002373642
      4        9           0.000787250   -0.002154318   -0.000000455
      5        6           0.001134682   -0.003424717   -0.000000438
      6        6          -0.000825766   -0.001236202    0.000003206
      7        6          -0.000310709   -0.002491203   -0.000012528
      8        8          -0.001693549    0.003903710    0.000005401
      9        6          -0.001444972   -0.000996259    0.000004009
     10        9          -0.000590741   -0.001141385    0.002418663
     11        9          -0.000592866   -0.001142736   -0.002416372
     12        9           0.001651087    0.002767054   -0.000002373
     13        1           0.000062506   -0.000993564   -0.000000086
     14        8           0.002305417    0.003167481    0.000000609
     15        1          -0.000701537    0.001522672    0.000000414
 -------------------------------------------------------------------
 Cartesian Forces:  Max     0.003903710 RMS     0.001570364

 GradGradGradGradGradGradGradGradGradGradGradGradGradGradGradGradGradGrad
 Berny optimization.
 Using GEDIIS/GDIIS optimizer.
 FormGI is forming the generalized inverse of G from B-inverse, IUseBI=4.
 Internal  Forces:  Max     0.006002466 RMS     0.001754130
 Search for a local minimum.
 Step number   3 out of a maximum of   68
 All quantities printed in internal units (Hartrees-Bohrs-Radians)
 Mixed Optimization -- RFO/linear search
 Update second derivatives using D2CorX and points    1    2    3
 DE= -5.13D-04 DEPred=-9.18D-04 R= 5.59D-01
 TightC=F SS=  1.41D+00  RLast= 6.00D-02 DXNew= 5.0454D-01 1.8012D-01
 Trust test= 5.59D-01 RLast= 6.00D-02 DXMaxT set to 3.00D-01
 ITU=  1  0  0
 Use linear search instead of GDIIS.
     Eigenvalues ---    0.00369   0.00653   0.00875   0.01549   0.01732
     Eigenvalues ---    0.02082   0.02621   0.02655   0.10731   0.11028
     Eigenvalues ---    0.11199   0.11224   0.15989   0.16073   0.21585
     Eigenvalues ---    0.23943   0.25000   0.25000   0.25000   0.25000
     Eigenvalues ---    0.25000   0.25000   0.25000   0.25446   0.28965
     Eigenvalues ---    0.31206   0.35955   0.38511   0.43536   0.49820
     Eigenvalues ---    0.53787   0.55052   0.55379   0.56390   0.56422
     Eigenvalues ---    0.58760   0.59852   0.80234   0.91061
 RFO step:  Lambda=-1.80686681D-04 EMin= 3.69027467D-03
 Quartic linear search produced a step of -0.29216.
 Iteration  1 RMS(Cart)=  0.01083046 RMS(Int)=  0.00003276
 Iteration  2 RMS(Cart)=  0.00006664 RMS(Int)=  0.00000147
 Iteration  3 RMS(Cart)=  0.00000000 RMS(Int)=  0.00000147
 Variable       Old X    -DE/DX   Delta X   Delta X   Delta X     New X
                                 (Linear)    (Quad)   (Total)
    R1        2.51597   0.00263   0.00225   0.00249   0.00474   2.52071
    R2        2.51597   0.00263   0.00225   0.00249   0.00474   2.52071
    R3        2.51735   0.00224   0.00267   0.00201   0.00467   2.52203
    R4        2.88131  -0.00092  -0.00297  -0.00224  -0.00521   2.87610
    R5        2.57197  -0.00264  -0.00323   0.00120  -0.00203   2.56994
    R6        2.47795   0.00449   0.00349   0.00319   0.00668   2.48462
    R7        2.72201  -0.00204  -0.00142  -0.00092  -0.00233   2.71968
    R8        2.03638   0.00099   0.00059   0.00166   0.00224   2.03862
    R9        2.31812   0.00383   0.00203   0.00300   0.00503   2.32315
   R10        2.92622  -0.00057  -0.00353  -0.00176  -0.00529   2.92093
   R11        2.52855   0.00260   0.00223   0.00245   0.00468   2.53323
   R12        2.52855   0.00260   0.00223   0.00245   0.00468   2.53323
   R13        2.49258   0.00298   0.00240   0.00278   0.00518   2.49776
   R14        1.88351  -0.00008  -0.00201   0.00260   0.00060   1.88411
    A1        1.88723   0.00096  -0.00069   0.00320   0.00252   1.88975
    A2        1.89198   0.00079  -0.00111   0.00273   0.00162   1.89360
    A3        1.92574  -0.00099   0.00063  -0.00295  -0.00232   1.92341
    A4        1.89198   0.00079  -0.00111   0.00273   0.00162   1.89360
    A5        1.92574  -0.00099   0.00063  -0.00295  -0.00233   1.92341
    A6        1.93984  -0.00045   0.00152  -0.00241  -0.00089   1.93895
    A7        2.14105   0.00026   0.00374  -0.00426  -0.00052   2.14053
    A8        1.96120   0.00089   0.00095  -0.00212  -0.00116   1.96004
    A9        2.18093  -0.00115  -0.00469   0.00637   0.00169   2.18262
   A10        2.07721  -0.00600  -0.00968  -0.00391  -0.01359   2.06362
   A11        2.09791   0.00304   0.00455   0.00237   0.00692   2.10484
   A12        2.10806   0.00296   0.00512   0.00154   0.00667   2.11473
   A13        2.17217  -0.00229  -0.00450   0.00158  -0.00292   2.16925
   A14        2.03650   0.00028   0.00146  -0.00233  -0.00087   2.03563
   A15        2.07451   0.00200   0.00305   0.00074   0.00379   2.07831
   A16        1.91692  -0.00089   0.00034  -0.00293  -0.00260   1.91432
   A17        1.91697  -0.00089   0.00034  -0.00293  -0.00260   1.91437
   A18        1.95215  -0.00173   0.00141  -0.00540  -0.00399   1.94815
   A19        1.87714   0.00118  -0.00056   0.00448   0.00392   1.88106
   A20        1.89950   0.00125  -0.00081   0.00364   0.00283   1.90232
   A21        1.89950   0.00124  -0.00081   0.00364   0.00282   1.90233
   A22        1.84590   0.00315  -0.00112   0.01465   0.01353   1.85943
    D1       -2.09940  -0.00003  -0.00002   0.00018   0.00016  -2.09924
    D2        1.04219  -0.00003  -0.00002   0.00018   0.00016   1.04235
    D3        2.09941   0.00003   0.00003  -0.00005  -0.00002   2.09939
    D4       -1.04219   0.00003   0.00003  -0.00005  -0.00002  -1.04221
    D5        0.00000   0.00000   0.00000   0.00006   0.00007   0.00007
    D6        3.14159   0.00000   0.00001   0.00007   0.00007  -3.14152
    D7       -3.14158  -0.00000   0.00000   0.00001   0.00001  -3.14157
    D8        0.00002  -0.00000  -0.00000  -0.00002  -0.00002  -0.00000
    D9        0.00002  -0.00000  -0.00000   0.00000   0.00000   0.00003
   D10       -3.14156  -0.00000  -0.00001  -0.00002  -0.00003  -3.14159
   D11       -3.14158   0.00000  -0.00000  -0.00000  -0.00001  -3.14159
   D12        0.00001   0.00000  -0.00000   0.00000  -0.00000   0.00000
   D13       -0.00007   0.00000   0.00000   0.00019   0.00020   0.00012
   D14        3.14155  -0.00000  -0.00002  -0.00029  -0.00031   3.14123
   D15        3.14151   0.00000   0.00001   0.00022   0.00023  -3.14145
   D16       -0.00005  -0.00000  -0.00001  -0.00027  -0.00028  -0.00033
   D17       -1.03129  -0.00018   0.00020   0.00054   0.00075  -1.03054
   D18        1.02980   0.00018  -0.00007   0.00249   0.00241   1.03221
   D19        3.14087   0.00000   0.00006   0.00151   0.00158  -3.14074
   D20        2.11033  -0.00018   0.00018   0.00008   0.00026   2.11060
   D21       -2.11177   0.00018  -0.00009   0.00203   0.00193  -2.10984
   D22       -0.00070  -0.00000   0.00004   0.00105   0.00109   0.00040
         Item               Value     Threshold  Converged?
 Maximum Force            0.006002     0.000450     NO 
 RMS     Force            0.001754     0.000300     NO 
 Maximum Displacement     0.034136     0.001800     NO 
 RMS     Displacement     0.010860     0.001200     NO 
 Predicted change in Energy=-1.623285D-04
 GradGradGradGradGradGradGradGradGradGradGradGradGradGradGradGradGradGrad

                          Input orientation:                          
 ---------------------------------------------------------------------
 Center     Atomic      Atomic             Coordinates (Angstroms)
 Number     Number       Type             X           Y           Z
 ---------------------------------------------------------------------
      1          6           0       -2.519766   -0.310821    0.000449
      2          9           0       -3.223910    0.028552   -1.080431
      3          9           0       -3.223427    0.028630    1.081617
      4          9           0       -2.356144   -1.635352    0.000460
      5          6           0       -1.177648    0.406884    0.000124
      6          6           0        0.009246   -0.257015   -0.000198
      7          6           0        1.222474    0.517159   -0.000459
      8          8           0        1.259943    1.745946   -0.000286
      9          6           0        2.549816   -0.274876   -0.000327
     10          9           0        2.604925   -1.063465    1.082308
     11          9           0        2.605788   -1.062484   -1.083632
     12          9           0        3.597672    0.530751    0.000457
     13          1           0        0.035176   -1.335496   -0.000234
     14          8           0       -1.311292    1.714880    0.000191
     15          1           0       -0.389308    2.094362   -0.000042
 ---------------------------------------------------------------------
                    Distance matrix (angstroms):
                    1          2          3          4          5
     1  C    0.000000
     2  F    1.333902   0.000000
     3  F    1.333901   2.162048   0.000000
     4  F    1.334599   2.165622   2.165622   0.000000
     5  C    1.521967   2.344765   2.344764   2.357877   0.000000
     6  C    2.529584   3.420781   3.420832   2.737679   1.359955
     7  C    3.832742   4.601674   4.601694   4.176100   2.402654
     8  O    4.303079   4.921492   4.921412   4.950683   2.781175
     9  C    5.069709   5.881717   5.881586   5.091104   3.789298
    10  F    5.291441   6.312310   5.929786   5.109761   4.200108
    11  F    5.292592   5.930914   6.313365   5.111184   4.200947
    12  F    6.175054   6.924919   6.924480   6.335608   4.776926
    13  H    2.752760   3.694468   3.694555   2.410047   2.122930
    14  O    2.358787   2.769395   2.769329   3.509384   1.314806
    15  H    3.213060   3.670119   3.670077   4.216540   1.862541
                    6          7          8          9         10
     6  C    0.000000
     7  C    1.439190   0.000000
     8  O    2.361376   1.229358   0.000000
     9  C    2.540633   1.545689   2.397393   0.000000
    10  F    2.925702   2.362610   3.297541   1.340526   0.000000
    11  F    2.926540   2.362645   3.297304   1.340526   2.165941
    12  F    3.673878   2.375237   2.634706   1.321756   2.167366
    13  H    1.078793   2.200456   3.315922   2.729162   2.801698
    14  O    2.373224   2.802590   2.571423   4.343648   4.922087
    15  H    2.384915   2.255086   1.685652   3.775147   4.484282
                   11         12         13         14         15
    11  F    0.000000
    12  F    2.167367   0.000000
    13  H    2.802915   4.021723   0.000000
    14  O    4.922595   5.049761   3.334332   0.000000
    15  H    4.484467   4.282626   3.456025   0.997026   0.000000
 Stoichiometry    C5H2F6O2
 Framework group  C1[X(C5H2F6O2)]
 Deg. of freedom    39
 Full point group                 C1      NOp   1
 Largest Abelian subgroup         C1      NOp   1
 Largest concise Abelian subgroup C1      NOp   1
                         Standard orientation:                         
 ---------------------------------------------------------------------
 Center     Atomic      Atomic             Coordinates (Angstroms)
 Number     Number       Type             X           Y           Z
 ---------------------------------------------------------------------
      1          6           0       -2.517966   -0.311921    0.000414
      2          9           0       -3.221764    0.028169   -1.080465
      3          9           0       -3.221282    0.028246    1.081583
      4          9           0       -2.355691   -1.636617    0.000425
      5          6           0       -1.175119    0.404421    0.000090
      6          6           0        0.011099   -0.260685   -0.000233
      7          6           0        1.225114    0.512255   -0.000493
      8          8           0        1.263831    1.741004   -0.000320
      9          6           0        2.551649   -0.281128   -0.000362
     10          9           0        2.605958   -1.069772    1.082274
     11          9           0        2.606821   -1.068792   -1.083666
     12          9           0        3.600324    0.523434    0.000422
     13          1           0        0.035933   -1.339192   -0.000268
     14          8           0       -1.307434    1.712552    0.000157
     15          1           0       -0.385065    2.091096   -0.000076
 ---------------------------------------------------------------------
 Rotational constants (GHZ):           1.6952862           0.3785736           0.3473085
 Standard basis: GTBas3 (6D, 7F)
 There are   413 symmetry adapted cartesian basis functions of A   symmetry.
 There are   374 symmetry adapted basis functions of A   symmetry.
   374 basis functions,   586 primitive gaussians,   413 cartesian basis functions
    51 alpha electrons       51 beta electrons
       nuclear repulsion energy       884.8901061543 Hartrees.
 NAtoms=   15 NActive=   15 NUniq=   15 SFac= 1.00D+00 NAtFMM=   60 NAOKFM=F Big=F
 Integral buffers will be    131072 words long.
 Raffenetti 2 integral format.
 Two-electron integral symmetry is turned on.
 One-electron integrals computed using PRISM.
 NBasis=   374 RedAO= T EigKep=  3.11D-04  NBF=   374
 NBsUse=   374 1.00D-06 EigRej= -1.00D+00 NBFU=   374
 Initial guess from the checkpoint file:  "/home/artemiy/opt/gaussian/scr/Gau-21554.chk"
 B after Tr=    -0.000000   -0.000000   -0.000000
         Rot=    1.000000   -0.000139   -0.000049   -0.000043 Ang=  -0.02 deg.
 ExpMin= 1.61D-01 ExpMax= 7.00D+03 ExpMxC= 1.05D+03 IAcc=2 IRadAn=         4 AccDes= 0.00D+00
 Harris functional with IExCor=  402 and IRadAn=       4 diagonalized for initial guess.
 HarFok:  IExCor=  402 AccDes= 0.00D+00 IRadAn=         4 IDoV= 1 UseB2=F ITyADJ=14
 ICtDFT=  3500011 ScaDFX=  1.000000  1.000000  1.000000  1.000000
 FoFCou: FMM=F IPFlag=           0 FMFlag=      100000 FMFlg1=           0
         NFxFlg=           0 DoJE=T BraDBF=F KetDBF=T FulRan=T
         wScrn=  0.000000 ICntrl=       500 IOpCl=  0 I1Cent=   200000004 NGrid=           0
         NMat0=    1 NMatS0=      1 NMatT0=    0 NMatD0=    1 NMtDS0=    0 NMtDT0=    0
 Petite list used in FoFCou.
 Requested convergence on RMS density matrix=1.00D-08 within 128 cycles.
 Requested convergence on MAX density matrix=1.00D-06.
 Requested convergence on             energy=1.00D-06.
 No special actions if energy rises.
 Integral accuracy reduced to 1.0D-05 until final iterations.
 Initial convergence to 1.0D-05 achieved.  Increase integral accuracy.
 SCF Done:  E(RB3LYP) =  -941.274124816     A.U. after   11 cycles
            NFock= 11  Conv=0.34D-08     -V/T= 2.0058
 Calling FoFJK, ICntrl=      2127 FMM=F ISym2X=0 I1Cent= 0 IOpClX= 0 NMat=1 NMatS=1 NMatT=0.
 ***** Axes restored to original set *****
 -------------------------------------------------------------------
 Center     Atomic                   Forces (Hartrees/Bohr)
 Number     Number              X              Y              Z
 -------------------------------------------------------------------
      1        6           0.000196815   -0.000245280    0.000002594
      2        9          -0.000198961   -0.000077283   -0.000034231
      3        9          -0.000199742   -0.000077521    0.000034094
      4        9          -0.000206964    0.000205880   -0.000000449
      5        6           0.000469246    0.001342683   -0.000004052
      6        6          -0.000024382   -0.000427008   -0.000018575
      7        6          -0.000757841    0.000080675    0.000054392
      8        8           0.000501400    0.000713005   -0.000020655
      9        6          -0.000070879   -0.000167257   -0.000013992
     10        9           0.000144197   -0.000025406   -0.000224871
     11        9           0.000142640   -0.000026256    0.000224492
     12        9           0.000270426   -0.000009986   -0.000000857
     13        1          -0.000001420    0.000058460    0.000000946
     14        8          -0.000422942   -0.000464341   -0.000000497
     15        1           0.000158407   -0.000880365    0.000001659
 -------------------------------------------------------------------
 Cartesian Forces:  Max     0.001342683 RMS     0.000342413

 GradGradGradGradGradGradGradGradGradGradGradGradGradGradGradGradGradGrad
 Berny optimization.
 Using GEDIIS/GDIIS optimizer.
 FormGI is forming the generalized inverse of G from B-inverse, IUseBI=4.
 Internal  Forces:  Max     0.001647342 RMS     0.000362583
 Search for a local minimum.
 Step number   4 out of a maximum of   68
 All quantities printed in internal units (Hartrees-Bohrs-Radians)
 Mixed Optimization -- En-DIIS/RFO-DIIS
 Update second derivatives using D2CorX and points    1    2    3    4
 DE= -1.55D-04 DEPred=-1.62D-04 R= 9.55D-01
 TightC=F SS=  1.41D+00  RLast= 2.94D-02 DXNew= 5.0454D-01 8.8168D-02
 Trust test= 9.55D-01 RLast= 2.94D-02 DXMaxT set to 3.00D-01
 ITU=  1  1  0  0
 Use linear search instead of GDIIS.
     Eigenvalues ---    0.00369   0.00653   0.00873   0.01549   0.01734
     Eigenvalues ---    0.02082   0.02621   0.02655   0.10799   0.11056
     Eigenvalues ---    0.11244   0.11287   0.15998   0.18275   0.22606
     Eigenvalues ---    0.22995   0.24905   0.25000   0.25000   0.25000
     Eigenvalues ---    0.25000   0.25000   0.25000   0.26308   0.30366
     Eigenvalues ---    0.32578   0.35984   0.38961   0.43824   0.49552
     Eigenvalues ---    0.53404   0.55052   0.55395   0.56037   0.56390
     Eigenvalues ---    0.58416   0.64289   0.76403   0.92129
 RFO step:  Lambda=-1.43932240D-05 EMin= 3.68898139D-03
 Quartic linear search produced a step of -0.11399.
[...]
    13  H   -0.018498   0.003904   0.003632  -0.000686  -0.000697   0.000016
    14  O   -0.010727  -0.031532   0.001278   0.000193   0.000192   0.000263
    15  H   -0.000784   0.040109   0.000742  -0.000096  -0.000096  -0.000310
              13         14         15
     1  C   -0.001626  -0.052192   0.004443
     2  F   -0.000048   0.001246  -0.000456
     3  F   -0.000048   0.001247  -0.000457
     4  F   -0.001057   0.003865  -0.000391
     5  C   -0.013149   0.394497  -0.021166
     6  C    0.391349  -0.076095  -0.011490
     7  C   -0.018498  -0.010727  -0.000784
     8  O    0.003904  -0.031532   0.040109
     9  C    0.003632   0.001278   0.000742
    10  F   -0.000686   0.000193  -0.000096
    11  F   -0.000697   0.000192  -0.000096
    12  F    0.000016   0.000263  -0.000310
    13  H    0.389940   0.003426   0.000386
    14  O    0.003426   8.018633   0.301084
    15  H    0.000386   0.301084   0.237872
 Mulliken charges:
               1
     1  C    0.730563
     2  F   -0.263858
     3  F   -0.263860
     4  F   -0.291036
     5  C    0.425110
     6  C   -0.345529
     7  C    0.535154
     8  O   -0.554949
     9  C    0.662369
    10  F   -0.257993
    11  F   -0.258012
    12  F   -0.256346
    13  H    0.243155
    14  O   -0.555378
    15  H    0.450610
 Sum of Mulliken charges =  -0.00000
 Mulliken charges with hydrogens summed into heavy atoms:
               1
     1  C    0.730563
     2  F   -0.263858
     3  F   -0.263860
     4  F   -0.291036
     5  C    0.425110
     6  C   -0.102374
     7  C    0.535154
     8  O   -0.554949
     9  C    0.662369
    10  F   -0.257993
    11  F   -0.258012
    12  F   -0.256346
    14  O   -0.104768
 Electronic spatial extent (au):  <R**2>=           2823.5056
 Charge=             -0.0000 electrons
 Dipole moment (field-independent basis, Debye):
    X=             -0.0970    Y=             -0.9362    Z=              0.0005  Tot=              0.9413
 Quadrupole moment (field-independent basis, Debye-Ang):
   XX=            -79.3980   YY=            -72.6265   ZZ=            -70.5058
   XY=             -0.6870   XZ=              0.0018   YZ=              0.0004
 Traceless Quadrupole moment (field-independent basis, Debye-Ang):
   XX=             -5.2212   YY=              1.5503   ZZ=              3.6709
   XY=             -0.6870   XZ=              0.0018   YZ=              0.0004
 Octapole moment (field-independent basis, Debye-Ang**2):
  XXX=             -0.2360  YYY=            -12.9936  ZZZ=              0.0025  XYY=             -3.3210
  XXY=            -10.1576  XXZ=              0.0007  XZZ=              1.5448  YZZ=             -1.2491
  YYZ=             -0.0009  XYZ=              0.0004
 Hexadecapole moment (field-independent basis, Debye-Ang**3):
 XXXX=          -2327.3849 YYYY=           -441.0400 ZZZZ=           -190.8665 XXXY=             -2.9176
 XXXZ=              0.1590 YYYX=            -11.0143 YYYZ=              0.0149 ZZZX=              0.1722
 ZZZY=              0.0063 XXYY=           -475.4757 XXZZ=           -420.0989 YYZZ=           -107.0626
 XXYZ=              0.0001 YYXZ=              0.0518 ZZXY=              5.7509
 N-N= 8.847796798776D+02 E-N=-3.995980162294D+03  KE= 9.364915556511D+02
 1\1\GINC-ARTEMIY-VIRTUALBOX\SP\RHF\GFHFB2\C5H2F6O2\ARTEMIY\28-Nov-2021
 \0\\#N Geom=AllCheck Guess=TCheck SCRF=Check HF/GFHFB2 SCF=Tight\\Titl
 e Card Required\\0,1\C,0,-2.5211889052,-0.3105379172,0.0003864638\F,0,
 -3.2257327842,0.028738556,-1.0805052017\F,0,-3.2255023828,0.0289955753
 ,1.0813465505\F,0,-2.3585327369,-1.6348031214,0.0005266341\C,0,-1.1782
 482597,0.407384508,0.0001582282\C,0,0.0087628431,-0.2572841304,0.00010
 98873\C,0,1.2213026886,0.517921634,-0.0002064862\O,0,1.2597583107,1.74
 72880384,-0.0003061951\C,0,2.5500354823,-0.2739741057,-0.0003775241\F,
 0,2.6065721361,-1.0630740527,1.0815269096\F,0,2.60711726,-1.0615058549
 ,-1.08339281\F,0,3.597873805,0.5322328027,0.0004650002\H,0,0.035418990
 8,-1.3356055047,0.0002815351\O,0,-1.3097632338,1.7143544977,0.00003657
 13\H,0,-0.384328214,2.087524075,-0.0000525631\\Version=ES64L-G16RevA.0
 3\State=1-A\HF=-937.3052566\RMSD=6.568e-09\Dipole=-0.0377117,-0.368395
 8,0.0001926\Quadrupole=-3.8805585,1.1512975,2.729261,-0.5170987,0.0013
 015,0.0002983\PG=C01 [X(C5H2F6O2)]\\@


 SIC AS THE CAWSE OF EWERY THING IS, SIC WILBE THE EFFECT.
 -- PROVERBS AND REASONS OF THE YEAR 1585
           AS REPRINTED IN PAISLEY MAGAZINE 1828.
 Diagonal vibrational polarizability:
        0.0000000       0.0000000       0.0000000
    1 imaginary frequencies ignored.
 
 Temperature=              298.150000 Pressure=                      1.000000
 E(ZPE)=                     0.076357 E(Thermal)=                    0.087144
 E(QCISD(T))=             -938.945409 E(Empiric)=                   -0.263986
 E(CCSD(T))=                -0.263986 E(Empiric)=                   -0.073438
 DE(Plus)=                  -0.617666 DE(2DF)=                      -1.050129
 E(Delta-G3XP)=             -0.106917 DE(HF)=                     -940.981188
 G4(0 K)=                 -940.970402 G4 Energy=                  -940.969457
 G4 Enthalpy=             -941.019448 G4 Free Energy=    
 1\1\GINC-ARTEMIY-VIRTUALBOX\Mixed\G4\G4\C5H2F6O2\ARTEMIY\28-Nov-2021\0
 \\# g4 geom=gic\\Title Card Required\\0,1\C,0,-2.5211889052,-0.3105379
 172,0.0003864638\F,0,-3.2257327842,0.028738556,-1.0805052017\F,0,-3.22
 55023828,0.0289955753,1.0813465505\F,0,-2.3585327369,-1.6348031214,0.0
 005266341\C,0,-1.1782482597,0.407384508,0.0001582282\C,0,0.0087628431,
 -0.2572841304,0.0001098873\C,0,1.2213026886,0.517921634,-0.0002064862\
 O,0,1.2597583107,1.7472880384,-0.0003061951\C,0,2.5500354823,-0.273974
 1057,-0.0003775241\F,0,2.6065721361,-1.0630740527,1.0815269096\F,0,2.6
 0711726,-1.0615058549,-1.08339281\F,0,3.597873805,0.5322328027,0.00046
 50002\H,0,0.0354189908,-1.3356055047,0.0002815351\O,0,-1.3097632338,1.
 7143544977,0.0000365713\H,0,-0.384328214,2.087524075,-0.0000525631\\Ve
 rsion=ES64L-G16RevA.03\State=1-A\MP2/GTBas1=-938.8607133\MP4/GTBas1=-9
 38.9638797\CCSD(T)/G3Bas1=-938.9454094\MP2/GTBas2=-938.9279458\MP4/GTB
 as2=-939.0373176\MP2/GTBas3=-939.4414913\MP4/GTBas3=-939.5815462\HF/GT
 LargeXP=-937.2026666\MP2/GTLargeXP=-940.5588524\HF/GFHFB1=-937.2874976
 \HF/GFHFB2=-937.3052566\G4=-940.9811883\FreqCoord=-4.7643565391,-0.586
 8316148,0.0007303108,-6.0957515131,0.054308,-2.0418589073,-6.095316117
 6,0.0547936962,2.0434488263,-4.4569809286,-3.0893301669,0.0009951941,-
 2.2265665175,0.7698451475,0.0002990079,0.0165593735,-0.4861965427,0.00
 0207657,2.3079275967,0.9787300422,-0.0003902023,2.3805981905,3.3018958
 532,-0.0005786249,4.8188686694,-0.5177360249,-0.0007134172,4.925707461
 2,-2.0089188097,2.0437896555,4.926737596,-2.0059553455,-2.0473156962,6
 .7989961222,1.0057742316,0.000878723,0.0669321922,-2.5239286144,0.0005
 320243,-2.4750937999,3.239660481,0.0000691097,-0.7262750664,3.94484878
 01,-0.0000993299\PG=C01 [X(C5H2F6O2)]\NImag=1\\0.58540888,0.02184430,0
 .57224193,-0.00001187,-0.00000816,0.51491695,-0.16002535,0.01769404,-0
 .10222262,0.16618772,0.02127434,-0.08356433,0.02962198,-0.04919108,0.0
 9851481,-0.09929174,0.02628750,-0.19573977,0.14461388,-0.06851660,0.29
 783226,-0.15998274,0.01771258,0.10221159,0.02412305,-0.00200925,-0.008
 63851,0.16612736,0.02129219,-0.08357786,-0.02965397,-0.00200669,0.0141
 8236,0.00270141,-0.04921075,0.09854795,0.09928000,-0.02631829,-0.19577
 020,0.00861593,-0.00272429,-0.08408054,-0.14457526,0.06857491,0.297862
 10,-0.08310273,0.00010721,0.00000126,0.00021751,0.03850000,-0.01640901
 ,0.00022407,0.03849393,0.01639837,0.08547208,-0.00908165,-0.28316234,0
 .00002612,0.02672425,-0.03866512,0.03429305,0.02672042,-0.03868460,-0.
 03429122,-0.04071199,0.40563146,0.00000208,0.00002457,-0.07393361,-0.0
 1527936,0.04710064,-0.00701023,0.01527150,-0.04710128,-0.00699761,0.00
 000409,-0.00003429,0.07962053,-0.17861856,-0.05085728,0.00001721,-0.02
 621543,-0.00587210,-0.01834169,-0.02620308,-0.00586690,0.01834598,0.00
 803746,0.01098955,-0.00000113,0.74586703,-0.05038800,-0.08498397,0.000
 00972,0.01181158,0.00629609,0.00992668,0.01181832,0.00629456,-0.009934
 16,-0.02619101,-0.04322692,0.00000881,-0.07866829,0.72166419,0.0000176
 1,0.00000881,-0.06510307,-0.03977547,-0.00508813,-0.01361173,0.0397756
 0,0.00508460,-0.01362293,0.00000322,0.00000489,0.00788929,-0.00005048,
 -0.00004895,0.19690749,-0.00517498,0.01716213,0.00000186,-0.00619934,-
 0.00152739,-0.00332237,-0.00619979,-0.00152666,0.00332420,-0.00546482,
 -0.00307716,0.00000073,-0.35435590,0.09266632,0.00002186,0.67076361,-0
 .00566409,0.01606278,-0.00000022,-0.00543460,-0.00140655,-0.00371964,-
 0.00543427,-0.00140563,0.00372146,0.00002905,-0.00103078,0.00000019,0.
 13317773,-0.19006910,0.00000033,-0.07207352,0.75683287,0.00000259,-0.0
 0000345,0.01013924,0.00146538,-0.00008854,0.00067393,-0.00146233,0.000
 08936,0.00067242,0.00000066,0.00000033,-0.00040121,0.00001706,0.000007
 78,-0.05982140,-0.00006931,-0.00009260,0.09531858,-0.01311752,0.000382
 26,0.00000109,0.00262687,-0.00024574,0.00053573,0.00262682,-0.00024591
 ,-0.00053629,0.00284601,0.00169894,-0.00000037,-0.05722385,0.01822926,
 0.00000787,-0.21694599,-0.07068678,0.00003836,0.56913454,-0.00723142,-
 0.00680432,0.00000259,0.00420739,0.00043162,0.00225571,0.00420626,0.00
 043094,-0.00225667,0.00024225,0.00147896,-0.00000016,-0.01616300,0.063
 61864,-0.00000519,-0.02032865,-0.14496224,0.00001538,0.02875527,0.8801
 3194,0.00000460,0.00000273,0.00961449,0.00278722,0.00046979,0.00042683
 ,-0.00278974,-0.00046991,0.00042861,-0.00000063,-0.00000086,0.00016916
 ,0.00001092,-0.00001193,0.00408744,0.00002639,0.00002224,-0.07198322,-
 0.00006513,-0.00005804,0.21887554,0.00329096,0.00033598,-0.00000042,-0
 .00065633,-0.00028814,-0.00011898,-0.00065625,-0.00028813,0.00011918,-
 0.00126542,-0.00140314,0.00000027,-0.00402817,0.01726216,-0.00000129,0
 .01867891,-0.04266372,0.00000465,-0.11712464,-0.02654100,0.00001165,0.
 12622920,0.00817316,0.00099528,-0.00000028,-0.00274307,0.00030045,-0.0
 0131813,-0.00274314,0.00030074,0.00131870,-0.00148883,0.00048797,0.000
 00004,0.02771705,-0.04321665,0.00000141,-0.06473750,-0.04896972,0.0000
 1576,0.00559710,-0.63542074,0.00004360,0.03609573,0.73901119,-0.000001
 88,-0.00000052,-0.00047709,-0.00010363,-0.00006240,0.00006721,0.000104
 61,0.00006253,0.00006682,0.00000040,0.00000035,-0.00022865,-0.00000306
 ,0.00000155,-0.00236435,0.00000885,0.00001415,0.01927021,0.00000785,0.
 00004741,-0.06624082,-0.00001543,-0.00006243,0.03594502,-0.00608757,-0
 .00184821,0.00000019,0.00192382,0.00020989,0.00083555,0.00192410,0.000
 20969,-0.00083619,0.00135184,0.00108592,-0.00000028,-0.00812089,0.0056
 3755,0.00000030,-0.00901451,0.00960420,0.00000681,-0.17143334,0.028632
 48,0.00001545,0.01114349,0.00746285,-0.00000694,0.60334438,0.00159951,
 0.00399717,-0.00000205,-0.00118742,-0.00057980,-0.00061313,-0.00118657
 ,-0.00057959,0.00061343,-0.00028763,-0.00152578,0.00000036,-0.00390912
 ,-0.00626746,0.00000390,-0.01894522,0.01561204,0.00000754,0.03839532,-
 0.07242397,-0.00000364,0.02466797,-0.04283536,-0.00000535,0.00795909,0
 .55962773,0.00000141,-0.00000069,-0.00118310,-0.00088312,0.00003765,-0
 .00065986,0.00088208,-0.00003755,-0.00065942,-0.00000055,0.00000032,-0
 .00017385,0.00000097,0.00000152,0.00263361,0.00000221,-0.00000211,0.01
 233710,0.00000538,-0.00000295,-0.06910414,-0.00000860,0.00000864,0.014
 16691,0.00001055,0.00001497,0.48834845,0.00192183,0.00075951,-0.000577
 47,-0.00077256,-0.00009431,-0.00029129,-0.00047535,-0.00007498,0.00023
 220,-0.00038981,-0.00044708,0.00001813,0.00248579,-0.00223650,-0.00015
 186,-0.00442298,-0.00091809,0.00166012,0.00926937,0.01895850,-0.023098
 18,-0.00529201,0.00438465,0.00176423,-0.08748396,0.02345334,-0.0311460
 0,0.07101303,-0.00120562,-0.00135802,0.00102412,0.00064001,0.00022983,
 0.00013340,0.00035303,0.00017934,-0.00027124,0.00024000,0.00073681,-0.
 00011853,-0.00065958,0.00208945,-0.00110446,0.00486135,-0.00158118,-0.
 00327423,-0.00375009,-0.01355529,0.03041509,0.00644300,-0.00365404,-0.
 00268285,0.02797355,-0.15551634,0.10034447,-0.00396071,0.18515338,0.00
 070070,0.00070807,-0.00088944,-0.00029630,-0.00014146,0.00007421,-0.00
 031563,-0.00007129,0.00033378,-0.00016306,-0.00038913,0.00014991,0.000
 23752,-0.00076697,0.00040450,-0.00241457,-0.00000594,0.00226710,0.0047
 2450,0.01427536,-0.01335853,-0.00621272,0.00489663,0.00086211,-0.02913
 293,0.09651659,-0.18783913,0.01407812,-0.15365314,0.28782134,0.0019220
 2,0.00076068,0.00057829,-0.00047524,-0.00007511,-0.00023212,-0.0007729
 9,-0.00009439,0.00029155,-0.00038968,-0.00044750,-0.00001805,0.0024861
 3,-0.00224115,0.00014934,-0.00442094,-0.00091511,-0.00166976,0.0092609
 4,0.01893555,0.02313556,-0.00528812,0.00438048,-0.00176522,-0.08750513
 ,0.02347546,0.03125004,0.01498441,-0.00406403,-0.00285709,0.07100384,-
 0.00120536,-0.00135673,-0.00102286,0.00035315,0.00017913,0.00027128,0.
 00063985,0.00022949,-0.00013381,0.00024004,0.00073563,0.00011822,-0.00
 065741,0.00208901,0.00110438,0.00486146,-0.00158341,0.00327048,-0.0037
 1167,-0.01349298,-0.03041546,0.00642121,-0.00364221,0.00268355,0.02797
 648,-0.15524429,-0.10029372,-0.00407124,0.02494801,0.00818183,-0.00401
 828,0.18471560,-0.00070351,-0.00070886,-0.00089108,0.00031652,0.000071
 30,0.00033450,0.00029761,0.00014154,0.00007368,0.00016369,0.00038924,0
 .00014999,-0.00023842,0.00077175,0.00040573,0.00242284,0.00000296,0.00
 227163,-0.00470527,-0.01426544,-0.01341479,0.00621220,-0.00490271,0.00
 086711,0.02921991,-0.09646559,-0.18810291,0.00289919,-0.00802738,-0.08
 239215,-0.01419385,0.15351066,0.28825653,0.00260763,0.00164906,-0.0000
 0142,-0.00122921,-0.00014968,-0.00068326,-0.00122885,-0.00014948,0.000
 68376,-0.00055580,-0.00040096,0.00000020,-0.00042854,-0.00602615,0.000
 00238,-0.00821555,0.00862323,0.00000101,-0.04098043,-0.03661596,-0.000
 03254,0.00500091,0.00152846,0.00000407,-0.25195342,-0.09235890,-0.0001
 1790,-0.00001460,-0.02714019,0.02152481,0.00001648,-0.02709464,-0.0215
 6211,0.29678665,0.00026531,-0.00044125,-0.00000012,-0.00009139,0.00008
 808,-0.00006546,-0.00009145,0.00008813,0.00006559,-0.00006112,0.000260
 32,-0.00000002,0.00071863,-0.00087063,-0.00000049,0.00009277,0.0000546
 7,-0.00000026,0.00252691,-0.00276722,-0.00000262,0.00583262,0.00549541
 ,0.00000285,-0.10899658,-0.14177511,-0.00007351,-0.03811403,-0.0380849
 7,0.03080091,-0.03805227,-0.03798708,-0.03086539,0.17586739,0.21434755
 ,0.00000076,0.00000043,-0.00008843,0.00004908,-0.00001395,0.00007450,-
 0.00004980,0.00001389,0.00007491,-0.00000012,-0.00000006,0.00003569,-0
 .00000014,-0.00000241,-0.00019181,-0.00000229,0.00000351,0.00021529,-0
 .00001272,-0.00001361,0.00899375,0.00000439,-0.00000035,-0.00090257,-0
 .00011435,-0.00006615,-0.07452970,0.03358828,0.03670911,-0.00638227,-0
 .03364348,-0.03676945,-0.00650826,0.00018106,0.00013797,0.07966964,0.0
 0001313,0.00367397,-0.00000082,0.00032459,-0.00055666,0.00044398,0.000
 32474,-0.00055675,-0.00044398,-0.00169516,-0.00267879,0.00000045,0.005
 72852,0.02895771,-0.00000520,-0.05588203,0.00639794,0.00000666,0.00908
 725,-0.02523524,0.00000071,-0.00598444,-0.00437466,0.00000211,-0.00038
 689,-0.00239962,0.00000394,-0.00041116,0.00096112,-0.00055924,-0.00040
 967,0.00095599,0.00055560,0.00069728,0.00058599,-0.00000023,0.05591958
 ,0.00029620,-0.00142176,-0.00000059,-0.00005057,0.00011257,-0.00010990
 ,-0.00005010,0.00011263,0.00010977,-0.00310518,0.00042036,0.00000015,-
 0.00088561,-0.01168219,0.00000100,0.00862215,-0.35513760,0.00005239,0.
 00405511,-0.00967406,-0.00000035,-0.00205703,0.00018382,0.00000134,-0.
 00072208,-0.00135781,0.00000145,0.00073058,0.00050345,-0.00011653,0.00
 072528,0.00050146,0.00011643,0.00016328,0.00031674,0.00000009,-0.00815
 958,0.37433532,-0.00000041,-0.00000032,-0.00342720,-0.00118246,-0.0000
 6292,-0.00040744,0.00118249,0.00006285,-0.00040783,0.00000053,-0.00000
 003,-0.00052878,-0.00000039,-0.00000315,-0.00258261,0.00000363,0.00005
 357,-0.02498343,-0.00000163,0.00000624,-0.00406383,0.00000128,0.000000
 22,0.00541474,0.00000091,-0.00000093,0.00184698,0.00030596,0.00089061,
 -0.00100521,-0.00030616,-0.00089015,-0.00100491,-0.00000011,0.00000038
 ,-0.00032978,-0.00000567,-0.00005683,0.02218644,0.00785159,-0.03159448
 ,0.00000290,0.00067847,-0.00039997,0.00115032,0.00067790,-0.00040049,-
 0.00115009,-0.00614035,-0.01183196,0.00000221,-0.12890255,0.02150359,0
 .00000316,0.01495055,0.04229263,-0.00000471,-0.00767546,-0.02008659,0.
 00000185,-0.03960690,0.01936079,0.00000596,0.00329479,-0.00011832,-0.0
 0000165,-0.00117197,0.00133710,-0.00109515,-0.00117165,0.00133462,0.00
 109572,0.00003383,0.00059276,0.00000043,-0.00525694,0.00104211,0.00000
 189,0.47873046,-0.00283949,-0.04121909,0.00000290,-0.00111149,0.003114
 31,-0.00158514,-0.00111057,0.00311499,0.00158503,-0.00501280,-0.002110
 00,0.00000104,0.03666063,-0.38133702,0.00003053,0.05609762,-0.04343569
 ,0.00000014,-0.03336093,-0.04325739,0.00001148,-0.01600588,0.04117091,
 -0.00000162,-0.00598369,-0.00012263,0.00000162,0.00185382,-0.00016788,
 -0.00027897,0.00185413,-0.00016983,0.00027480,0.00296594,0.00128096,0.
 00000129,0.00329342,0.00248764,0.00000030,0.06001905,0.54500994,-0.000
 00016,0.00000703,-0.00209080,0.00078614,-0.00036921,0.00183522,-0.0007
 8571,0.00036927,0.00183529,0.00000108,0.00000130,0.00142450,0.00000346
 ,0.00002852,-0.05792575,-0.00000805,0.00000325,0.01741396,0.00000378,0
 .00000597,-0.00535719,0.00000664,-0.00000632,0.00506052,0.00000073,-0.
 00000033,-0.00016722,0.00033022,0.00010373,0.00001633,-0.00032962,-0.0
 0010426,0.00001620,-0.00000040,-0.00000008,0.00003489,0.00000147,0.000
 00166,0.01019819,-0.00003408,-0.00005021,0.05274429,0.00309342,0.00221
 825,0.00000023,-0.00050859,0.00042520,-0.00025049,-0.00050897,0.000425
 31,0.00025064,0.00085479,0.00286115,-0.00000049,0.01949205,-0.04213538
 ,0.00000296,-0.02809623,0.00366539,0.00000280,0.01964943,0.04826415,-0
 .00000813,0.01555880,-0.03861307,-0.00000193,-0.00099673,0.00084209,0.
 00000125,0.00075997,-0.00202892,0.00178104,0.00075958,-0.00202422,-0.0
 0178012,-0.00053638,-0.00107552,-0.00000089,-0.00206879,-0.00060457,0.
 00000015,-0.31629177,-0.09731977,0.00002450,0.28883943,0.00287060,-0.0
 0540749,0.00000083,0.00038588,0.00076656,0.00005897,0.00038563,0.00076
 656,-0.00005921,-0.00099392,-0.00134598,0.00000026,-0.04572430,-0.0403
 9799,0.00000737,-0.00214769,0.00101954,-0.00000008,0.01236096,-0.00373
 390,-0.00000212,-0.00781162,-0.01020707,0.00000144,0.00079886,-0.00100
 882,-0.00000012,-0.00022346,0.00007746,0.00004403,-0.00022372,0.000078
 19,-0.00004331,-0.00086141,-0.00000561,-0.00000030,-0.00086486,0.00029
 943,0.00000013,-0.08305086,-0.08435922,0.00000968,0.12509991,0.1434583
 4,-0.00000019,0.00000115,0.00492310,0.00110882,-0.00023387,0.00019090,
 -0.00110850,0.00023361,0.00019091,0.00000007,0.,-0.00016512,0.00000219
 ,0.00001123,0.00289559,0.00000401,-0.00000114,-0.00339020,-0.00000316,
 -0.00000660,0.00092669,-0.00000282,0.00000521,-0.01150715,0.00000029,0
 .00000039,0.00308629,0.00038835,-0.00048869,-0.00006256,-0.00038942,0.
 00048932,-0.00006125,0.00000044,0.00000024,-0.00016583,0.00000020,-0.0
 0000008,-0.00090532,0.00002124,0.00000682,-0.02503841,-0.00002152,-0.0
 0001757,0.02908239\\-0.00000414,-0.00001666,-0.00000045,-0.00000449,0.
 00000241,-0.00000581,-0.00000359,0.00000249,0.00000530,0.00000292,0.00
 000631,0.00000001,0.00001938,0.00002741,-0.00000104,-0.00001467,-0.000
 03869,0.00000594,-0.00002542,0.00006317,-0.00001889,0.00000089,-0.0000
 2746,0.00000450,0.00001738,-0.00003875,0.00000458,-0.00000015,0.000002
 74,-0.00000060,-0.00000195,0.00000621,0.00000342,0.00000786,0.00000984
 ,-0.00000066,0.00000836,0.00000954,0.00000094,0.00000739,-0.00000529,-
 0.00000089,-0.00000978,-0.00000326,0.00000364\\\@
 Job cpu time:       0 days 17 hours 15 minutes 17.8 seconds.
 Elapsed time:       0 days  2 hours 27 minutes 57.7 seconds.
 File lengths (MBytes):  RWF= 134769 Int=      0 D2E=      0 Chk=    119 Scr=      1
 Normal termination of Gaussian 16 at Sun Nov 28 12:51:30 2021.
