 Entering Gaussian System, Link 0=/home/artemiy/opt/gaussian/g16/g16
 Input=1,1,1,5,5,5-Hexafluoro-2,4-pentanedione_enol_G4_after_B3LYP.gjf
 Output=1,1,1,5,5,5-Hexafluoro-2,4-pentanedione_enol_G4_after_B3LYP.log
 Initial command:
 /home/artemiy/opt/gaussian/g16/l1.exe "/home/artemiy/opt/gaussian/scr/Gau-11317.inp" -scrdir="/home/artemiy/opt/gaussian/scr/"
 Entering Link 1 = /home/artemiy/opt/gaussian/g16/l1.exe PID=     11321.
  
 Copyright (c) 1988,1990,1992,1993,1995,1998,2003,2009,2016,
            Gaussian, Inc.  All Rights Reserved.
  
 This is part of the Gaussian(R) 16 program.  It is based on
 the Gaussian(R) 09 system (copyright 2009, Gaussian, Inc.),
 the Gaussian(R) 03 system (copyright 2003, Gaussian, Inc.),
 the Gaussian(R) 98 system (copyright 1998, Gaussian, Inc.),
 the Gaussian(R) 94 system (copyright 1995, Gaussian, Inc.),
 the Gaussian 92(TM) system (copyright 1992, Gaussian, Inc.),
 the Gaussian 90(TM) system (copyright 1990, Gaussian, Inc.),
 the Gaussian 88(TM) system (copyright 1988, Gaussian, Inc.),
 the Gaussian 86(TM) system (copyright 1986, Carnegie Mellon
 University), and the Gaussian 82(TM) system (copyright 1983,
 Carnegie Mellon University). Gaussian is a federally registered
 trademark of Gaussian, Inc.
  
 This software contains proprietary and confidential information,
 including trade secrets, belonging to Gaussian, Inc.
  
 This software is provided under written license and may be
 used, copied, transmitted, or stored only in accord with that
 written license.
  
 The following legend is applicable only to US Government
 contracts under FAR:
  
                    RESTRICTED RIGHTS LEGEND
  
 Use, reproduction and disclosure by the US Government is
 subject to restrictions as set forth in subparagraphs (a)
 and (c) of the Commercial Computer Software - Restricted
 Rights clause in FAR 52.227-19.
  
 Gaussian, Inc.
 340 Quinnipiac St., Bldg. 40, Wallingford CT 06492
  
  
 ---------------------------------------------------------------
 Warning -- This program may not be used in any manner that
 competes with the business of Gaussian, Inc. or will provide
 assistance to any competitor of Gaussian, Inc.  The licensee
 of this program is prohibited from giving any competitor of
 Gaussian, Inc. access to this program.  By using this program,
 the user acknowledges that Gaussian, Inc. is engaged in the
 business of creating and licensing software in the field of
 computational chemistry and represents and warrants to the
 licensee that it is not a competitor of Gaussian, Inc. and that
 it will not use this program in any manner prohibited above.
 ---------------------------------------------------------------
  

 Cite this work as:
 Gaussian 16, Revision A.03,
 M. J. Frisch, G. W. Trucks, H. B. Schlegel, G. E. Scuseria, 
 M. A. Robb, J. R. Cheeseman, G. Scalmani, V. Barone, 
 G. A. Petersson, H. Nakatsuji, X. Li, M. Caricato, A. V. Marenich, 
 J. Bloino, B. G. Janesko, R. Gomperts, B. Mennucci, H. P. Hratchian, 
 J. V. Ortiz, A. F. Izmaylov, J. L. Sonnenberg, D. Williams-Young, 
 F. Ding, F. Lipparini, F. Egidi, J. Goings, B. Peng, A. Petrone, 
 T. Henderson, D. Ranasinghe, V. G. Zakrzewski, J. Gao, N. Rega, 
 G. Zheng, W. Liang, M. Hada, M. Ehara, K. Toyota, R. Fukuda, 
 J. Hasegawa, M. Ishida, T. Nakajima, Y. Honda, O. Kitao, H. Nakai, 
 T. Vreven, K. Throssell, J. A. Montgomery, Jr., J. E. Peralta, 
 F. Ogliaro, M. J. Bearpark, J. J. Heyd, E. N. Brothers, K. N. Kudin, 
 V. N. Staroverov, T. A. Keith, R. Kobayashi, J. Normand, 
 K. Raghavachari, A. P. Rendell, J. C. Burant, S. S. Iyengar, 
 J. Tomasi, M. Cossi, J. M. Millam, M. Klene, C. Adamo, R. Cammi, 
 J. W. Ochterski, R. L. Martin, K. Morokuma, O. Farkas, 
 J. B. Foresman, and D. J. Fox, Gaussian, Inc., Wallingford CT, 2016.
 
 ******************************************
 Gaussian 16:  ES64L-G16RevA.03 25-Dec-2016
                26-Nov-2021 
 ******************************************
 %mem=47GB
 %nprocshared=7
 Will use up to    7 processors via shared memory.
 -------------
 # g4 geom=gic
 -------------
 1/18=20,19=15,26=3,38=1,145=2/1,3;
 2/9=110,12=2,17=6,18=5,40=1/2;
 3/5=35,7=104,11=2,25=1,30=1,71=1,74=-5/1,2,3;
 4//1;
 5/5=2,38=5/2;
 6/7=2,8=2,9=2,10=2,28=1/1;
 7//1,2,3,16;
 1/18=20,19=15,26=3,145=2/3(2);
 2/9=110/2;
 99//99;
 2/9=110/2;
 3/5=35,7=104,11=2,25=1,30=1,71=1,74=-5/1,2,3;
 4/5=5,16=3,69=1/1;
 5/5=2,38=5/2;
 7//1,2,3,16;
 1/18=20,19=15,26=3,145=2/3(-5);
 2/9=110/2;
 6/7=2,8=2,9=2,10=2,19=2,28=1/1;
 99/9=1/99;
 -------------------
 CAS 1522-22-1
 -------------------
 Symbolic Z-matrix:
 Charge =  0 Multiplicity = 1
 C                     2.52162   0.2782    0.00024 
 F                     3.23207  -0.05752  -1.08271 
 F                     3.23181  -0.05737   1.08341 
 F                     2.36449   1.60641   0.00013 
 C                     1.17751  -0.44121   0.00013 
 C                    -0.0072    0.22088  -0.00008 
 C                    -1.22231  -0.548    -0.00017 
 O                    -1.26606  -1.77266  -0.00008 
 C                    -2.55237   0.2497   -0.0004 
 F                    -2.61385   1.04146   1.0849 
 F                    -2.61358   1.04128  -1.08584 
 F                    -3.60836  -0.54941  -0.00046 
 H                    -0.03232   1.29675  -0.00016 
 O                     1.31252  -1.74643   0.00025 
 H                     0.39804  -2.1351    0.00016 
 
 Initializing the GIC definitions file.

 GradGradGradGradGradGradGradGradGradGradGradGradGradGradGradGradGradGrad
 Berny optimization.
 Initialization pass.
                           ----------------------------
                           !    Initial Parameters    !
                           ! (Angstroms and Degrees)  !
 --------------------------                            --------------------------
 ! Name  Definition              Value          Derivative Info.                !
 --------------------------------------------------------------------------------
 ! R1    R(1,2)                  1.338          estimate D2E/DX2                !
 ! R2    R(1,3)                  1.338          estimate D2E/DX2                !
 ! R3    R(1,4)                  1.3375         estimate D2E/DX2                !
 ! R4    R(1,5)                  1.5245         estimate D2E/DX2                !
 ! R5    R(5,6)                  1.3572         estimate D2E/DX2                !
 ! R6    R(5,14)                 1.3122         estimate D2E/DX2                !
 ! R7    R(6,7)                  1.4379         estimate D2E/DX2                !
 ! R8    R(6,13)                 1.0762         estimate D2E/DX2                !
 ! R9    R(7,8)                  1.2254         estimate D2E/DX2                !
 ! R10   R(7,9)                  1.5509         estimate D2E/DX2                !
 ! R11   R(9,10)                 1.3448         estimate D2E/DX2                !
 ! R12   R(9,11)                 1.3448         estimate D2E/DX2                !
 ! R13   R(9,12)                 1.3243         estimate D2E/DX2                !
 ! R14   R(14,15)                0.9936         estimate D2E/DX2                !
 ! A1    A(2,1,3)              108.0871         estimate D2E/DX2                !
 ! A2    A(2,1,4)              108.1489         estimate D2E/DX2                !
 ! A3    A(2,1,5)              110.4676         estimate D2E/DX2                !
 ! A4    A(3,1,4)              108.1489         estimate D2E/DX2                !
 ! A5    A(3,1,5)              110.4678         estimate D2E/DX2                !
 ! A6    A(4,1,5)              111.4107         estimate D2E/DX2                !
 ! A7    A(1,5,6)              122.6438         estimate D2E/DX2                !
 ! A8    A(1,5,14)             112.2517         estimate D2E/DX2                !
 ! A9    A(6,5,14)             125.1044         estimate D2E/DX2                !
 ! A10   A(5,6,7)              118.477          estimate D2E/DX2                !
 ! A11   A(5,6,13)             120.5365         estimate D2E/DX2                !
 ! A12   A(7,6,13)             120.9865         estimate D2E/DX2                !
 ! A13   A(6,7,8)              124.3699         estimate D2E/DX2                !
 ! A14   A(6,7,9)              116.7229         estimate D2E/DX2                !
 ! A15   A(8,7,9)              118.9072         estimate D2E/DX2                !
 ! A16   A(7,9,10)             109.9926         estimate D2E/DX2                !
 ! A17   A(7,9,11)             109.9925         estimate D2E/DX2                !
 ! A18   A(7,9,12)             111.9309         estimate D2E/DX2                !
 ! A19   A(10,9,11)            107.6226         estimate D2E/DX2                !
 ! A20   A(10,9,12)            108.5938         estimate D2E/DX2                !
 ! A21   A(11,9,12)            108.5938         estimate D2E/DX2                !
 ! A22   A(5,14,15)            107.1208         estimate D2E/DX2                !
 ! D1    D(2,1,5,6)           -120.2294         estimate D2E/DX2                !
 ! D2    D(2,1,5,14)            59.7704         estimate D2E/DX2                !
 ! D3    D(3,1,5,6)            120.2311         estimate D2E/DX2                !
 ! D4    D(3,1,5,14)           -59.7691         estimate D2E/DX2                !
 ! D5    D(4,1,5,6)              0.0008         estimate D2E/DX2                !
 ! D6    D(4,1,5,14)          -179.9994         estimate D2E/DX2                !
 ! D7    D(1,5,6,7)            179.9999         estimate D2E/DX2                !
 ! D8    D(1,5,6,13)            -0.0003         estimate D2E/DX2                !
 ! D9    D(14,5,6,7)             0.0001         estimate D2E/DX2                !
 ! D10   D(14,5,6,13)          179.9998         estimate D2E/DX2                !
 ! D11   D(1,5,14,15)         -179.9998         estimate D2E/DX2                !
 ! D12   D(6,5,14,15)            0.0            estimate D2E/DX2                !
 ! D13   D(5,6,7,8)             -0.0001         estimate D2E/DX2                !
 ! D14   D(5,6,7,9)            179.9998         estimate D2E/DX2                !
 ! D15   D(13,6,7,8)          -179.9999         estimate D2E/DX2                !
 ! D16   D(13,6,7,9)             0.0            estimate D2E/DX2                !
 ! D17   D(6,7,9,10)           -59.1854         estimate D2E/DX2                !
 ! D18   D(6,7,9,11)            59.1861         estimate D2E/DX2                !
 ! D19   D(6,7,9,12)          -179.9997         estimate D2E/DX2                !
 ! D20   D(8,7,9,10)           120.8145         estimate D2E/DX2                !
 ! D21   D(8,7,9,11)          -120.814          estimate D2E/DX2                !
 ! D22   D(8,7,9,12)             0.0002         estimate D2E/DX2                !
 --------------------------------------------------------------------------------
 Trust Radius=3.00D-01 FncErr=1.00D-07 GrdErr=1.00D-06 EigMax=2.50D+02 EigMin=1.00D-04
 Number of steps in this run=     68 maximum allowed number of steps=    100.
 GradGradGradGradGradGradGradGradGradGradGradGradGradGradGradGradGradGrad

                          Input orientation:                          
 ---------------------------------------------------------------------
 Center     Atomic      Atomic             Coordinates (Angstroms)
 Number     Number       Type             X           Y           Z
 ---------------------------------------------------------------------
      1          6           0        2.521616    0.278204    0.000241
      2          9           0        3.232069   -0.057521   -1.082713
      3          9           0        3.231810   -0.057368    1.083411
      4          9           0        2.364494    1.606414    0.000129
      5          6           0        1.177514   -0.441205    0.000129
      6          6           0       -0.007198    0.220880   -0.000076
      7          6           0       -1.222313   -0.547997   -0.000170
      8          8           0       -1.266061   -1.772661   -0.000079
      9          6           0       -2.552370    0.249699   -0.000399
     10          9           0       -2.613846    1.041459    1.084900
     11          9           0       -2.613578    1.041280   -1.085844
     12          9           0       -3.608364   -0.549409   -0.000464
     13          1           0       -0.032318    1.296752   -0.000162
     14          8           0        1.312522   -1.746430    0.000250
     15          1           0        0.398042   -2.135099    0.000163
 ---------------------------------------------------------------------
                    Distance matrix (angstroms):
                    1          2          3          4          5
     1  C    0.000000
     2  F    1.338000   0.000000
     3  F    1.337999   2.166124   0.000000
     4  F    1.337471   2.166544   2.166543   0.000000
     5  C    1.524519   2.353924   2.353925   2.366784   0.000000
     6  C    2.529464   3.426727   3.426739   2.746749   1.357166
     7  C    3.834007   4.610204   4.610214   4.184097   2.402202
     8  O    4.307266   4.934265   4.934270   4.959746   2.782774
     9  C    5.074066   5.892837   5.892849   5.100610   3.793334
    10  F    5.303962   6.330958   5.948035   5.126380   4.213007
    11  F    5.303969   5.948022   6.330976   5.126394   4.213013
    12  F    6.185596   6.942963   6.942973   6.350008   4.787101
    13  H    2.749549   3.696241   3.696255   2.416733   2.117590
    14  O    2.358188   2.776668   2.776659   3.514002   1.312189
    15  H    3.214591   3.677045   3.677041   4.226802   1.864632
                    6          7          8          9         10
     6  C    0.000000
     7  C    1.437942   0.000000
     8  O    2.357741   1.225445   0.000000
     9  C    2.545335   1.550926   2.396775   0.000000
    10  F    2.940261   2.374892   3.303479   1.344819   0.000000
    11  F    2.940266   2.374891   3.303476   1.344819   2.170744
    12  F    3.682627   2.386051   2.642485   1.324272   2.167474
    13  H    1.076165   2.195265   3.308084   2.728916   2.811907
    14  O    2.368960   2.803860   2.578716   4.349934   4.936107
    15  H    2.390577   2.268137   1.703115   3.793704   4.509839
                   11         12         13         14         15
    11  F    0.000000
    12  F    2.167473   0.000000
    13  H    2.811917   4.024477   0.000000
    14  O    4.936111   5.064383   3.327094   0.000000
    15  H    4.509839   4.308794   3.458730   0.993648   0.000000
 Stoichiometry    C5H2F6O2
 Framework group  C1[X(C5H2F6O2)]
 Deg. of freedom    39
 Full point group                 C1      NOp   1
 Largest Abelian subgroup         C1      NOp   1
 Largest concise Abelian subgroup C1      NOp   1
                         Standard orientation:                         
 ---------------------------------------------------------------------
 Center     Atomic      Atomic             Coordinates (Angstroms)
 Number     Number       Type             X           Y           Z
 ---------------------------------------------------------------------
      1          6           0        2.519720   -0.311201   -0.000295
      2          9           0        3.230377    0.024093    1.082659
      3          9           0        3.230118    0.023940   -1.083465
      4          9           0        2.361793   -1.639316   -0.000183
      5          6           0        1.176055    0.409022   -0.000183
      6          6           0       -0.009059   -0.252344    0.000022
      7          6           0       -1.223707    0.517270    0.000116
      8          8           0       -1.266713    1.741960    0.000025
      9          6           0       -2.554248   -0.279620    0.000345
     10          9           0       -2.616204   -1.071342   -1.084954
     11          9           0       -2.615936   -1.071164    1.085790
     12          9           0       -3.609757    0.520128    0.000410
     13          1           0       -0.034831   -1.328201    0.000108
     14          8           0        1.311854    1.714165   -0.000304
     15          1           0        0.397610    2.103389   -0.000217
 ---------------------------------------------------------------------
 Rotational constants (GHZ):           1.6906228           0.3766478           0.3456654
 Standard basis: GTBas3 (6D, 7F)
 There are   413 symmetry adapted cartesian basis functions of A   symmetry.
 There are   374 symmetry adapted basis functions of A   symmetry.
   374 basis functions,   586 primitive gaussians,   413 cartesian basis functions
    51 alpha electrons       51 beta electrons
       nuclear repulsion energy       883.3047665061 Hartrees.
 NAtoms=   15 NActive=   15 NUniq=   15 SFac= 1.00D+00 NAtFMM=   60 NAOKFM=F Big=F
 Integral buffers will be    131072 words long.
 Raffenetti 2 integral format.
 Two-electron integral symmetry is turned on.
 One-electron integrals computed using PRISM.
 NBasis=   374 RedAO= T EigKep=  3.10D-04  NBF=   374
 NBsUse=   374 1.00D-06 EigRej= -1.00D+00 NBFU=   374
 ExpMin= 1.61D-01 ExpMax= 7.00D+03 ExpMxC= 1.05D+03 IAcc=3 IRadAn=         5 AccDes= 0.00D+00
 Harris functional with IExCor=  402 and IRadAn=       5 diagonalized for initial guess.
 HarFok:  IExCor=  402 AccDes= 0.00D+00 IRadAn=         5 IDoV= 1 UseB2=F ITyADJ=14
 ICtDFT=  3500011 ScaDFX=  1.000000  1.000000  1.000000  1.000000
 FoFCou: FMM=F IPFlag=           0 FMFlag=      100000 FMFlg1=           0
         NFxFlg=           0 DoJE=T BraDBF=F KetDBF=T FulRan=T
         wScrn=  0.000000 ICntrl=       500 IOpCl=  0 I1Cent=   200000004 NGrid=           0
         NMat0=    1 NMatS0=      1 NMatT0=    0 NMatD0=    1 NMtDS0=    0 NMtDT0=    0
 Petite list used in FoFCou.
 Requested convergence on RMS density matrix=1.00D-08 within 128 cycles.
 Requested convergence on MAX density matrix=1.00D-06.
 Requested convergence on             energy=1.00D-06.
 No special actions if energy rises.
 Integral accuracy reduced to 1.0D-05 until final iterations.
 Initial convergence to 1.0D-05 achieved.  Increase integral accuracy.
 SCF Done:  E(RB3LYP) =  -941.273926211     A.U. after   14 cycles
            NFock= 14  Conv=0.45D-08     -V/T= 2.0059

 **********************************************************************

            Population analysis using the SCF density.

 **********************************************************************

 Orbital symmetries:
       Occupied  (A) (A) (A) (A) (A) (A) (A) (A) (A) (A) (A) (A)
                 (A) (A) (A) (A) (A) (A) (A) (A) (A) (A) (A) (A)
                 (A) (A) (A) (A) (A) (A) (A) (A) (A) (A) (A) (A)
                 (A) (A) (A) (A) (A) (A) (A) (A) (A) (A) (A) (A)
                 (A) (A) (A)
       Virtual   (A) (A) (A) (A) (A) (A) (A) (A) (A) (A) (A) (A)
                 (A) (A) (A) (A) (A) (A) (A) (A) (A) (A) (A) (A)
                 (A) (A) (A) (A) (A) (A) (A) (A) (A) (A) (A) (A)
                 (A) (A) (A) (A) (A) (A) (A) (A) (A) (A) (A) (A)
                 (A) (A) (A) (A) (A) (A) (A) (A) (A) (A) (A) (A)
                 (A) (A) (A) (A) (A) (A) (A) (A) (A) (A) (A) (A)
                 (A) (A) (A) (A) (A) (A) (A) (A) (A) (A) (A) (A)
                 (A) (A) (A) (A) (A) (A) (A) (A) (A) (A) (A) (A)
                 (A) (A) (A) (A) (A) (A) (A) (A) (A) (A) (A) (A)
                 (A) (A) (A) (A) (A) (A) (A) (A) (A) (A) (A) (A)
                 (A) (A) (A) (A) (A) (A) (A) (A) (A) (A) (A) (A)
                 (A) (A) (A) (A) (A) (A) (A) (A) (A) (A) (A) (A)
                 (A) (A) (A) (A) (A) (A) (A) (A) (A) (A) (A) (A)
                 (A) (A) (A) (A) (A) (A) (A) (A) (A) (A) (A) (A)
                 (A) (A) (A) (A) (A) (A) (A) (A) (A) (A) (A) (A)
                 (A) (A) (A) (A) (A) (A) (A) (A) (A) (A) (A) (A)
                 (A) (A) (A) (A) (A) (A) (A) (A) (A) (A) (A) (A)
                 (A) (A) (A) (A) (A) (A) (A) (A) (A) (A) (A) (A)
                 (A) (A) (A) (A) (A) (A) (A) (A) (A) (A) (A) (A)
                 (A) (A) (A) (A) (A) (A) (A) (A) (A) (A) (A) (A)
                 (A) (A) (A) (A) (A) (A) (A) (A) (A) (A) (A) (A)
                 (A) (A) (A) (A) (A) (A) (A) (A) (A) (A) (A) (A)
                 (A) (A) (A) (A) (A) (A) (A) (A) (A) (A) (A) (A)
                 (A) (A) (A) (A) (A) (A) (A) (A) (A) (A) (A) (A)
                 (A) (A) (A) (A) (A) (A) (A) (A) (A) (A) (A) (A)
                 (A) (A) (A) (A) (A) (A) (A) (A) (A) (A) (A) (A)
                 (A) (A) (A) (A) (A) (A) (A) (A) (A) (A) (A)
 The electronic state is 1-A.
 Alpha  occ. eigenvalues --  -24.74900 -24.74336 -24.74335 -24.74104 -24.74094
 Alpha  occ. eigenvalues --  -24.74093 -19.21951 -19.18268 -10.45225 -10.44103
 Alpha  occ. eigenvalues --  -10.31739 -10.31640 -10.22402  -1.33373  -1.32819
 Alpha  occ. eigenvalues --   -1.24599  -1.24199  -1.24103  -1.23740  -1.12676
 Alpha  occ. eigenvalues --   -1.08486  -0.83798  -0.77407  -0.73698  -0.67509
 Alpha  occ. eigenvalues --   -0.65264  -0.61365  -0.60945  -0.60471  -0.60457
 Alpha  occ. eigenvalues --   -0.59000  -0.55359  -0.52600  -0.49703  -0.48776
 Alpha  occ. eigenvalues --   -0.48081  -0.48025  -0.47592  -0.46708  -0.44971
 Alpha  occ. eigenvalues --   -0.44856  -0.44083  -0.43405  -0.42756  -0.42385
 Alpha  occ. eigenvalues --   -0.42371  -0.42013  -0.41359  -0.40042  -0.30321
 Alpha  occ. eigenvalues --   -0.28892
 Alpha virt. eigenvalues --   -0.10051   0.02085   0.08284   0.11635   0.13485
 Alpha virt. eigenvalues --    0.15169   0.19002   0.19424   0.19669   0.20264
 Alpha virt. eigenvalues --    0.21167   0.22940   0.25048   0.28357   0.31741
 Alpha virt. eigenvalues --    0.35154   0.37369   0.37960   0.40032   0.40692
 Alpha virt. eigenvalues --    0.40943   0.42877   0.45294   0.47185   0.49789
 Alpha virt. eigenvalues --    0.51567   0.54162   0.54654   0.54989   0.56975
 Alpha virt. eigenvalues --    0.61491   0.62067   0.64185   0.64219   0.65845
 Alpha virt. eigenvalues --    0.67483   0.69549   0.71899   0.72757   0.73073
 Alpha virt. eigenvalues --    0.75833   0.80755   0.82151   0.83089   0.83232
 Alpha virt. eigenvalues --    0.83867   0.85241   0.85785   0.86969   0.87619
 Alpha virt. eigenvalues --    0.88747   0.90162   0.91529   0.91845   0.92980
 Alpha virt. eigenvalues --    0.94100   0.95326   0.96078   0.96472   0.96529
 Alpha virt. eigenvalues --    0.99035   0.99282   0.99572   0.99644   1.01473
 Alpha virt. eigenvalues --    1.02216   1.04372   1.04600   1.04861   1.05221
 Alpha virt. eigenvalues --    1.07967   1.09366   1.09389   1.12181   1.15137
 Alpha virt. eigenvalues --    1.15376   1.17144   1.17382   1.18964   1.19598
 Alpha virt. eigenvalues --    1.19673   1.24077   1.27966   1.28214   1.30537
 Alpha virt. eigenvalues --    1.33033   1.34134   1.35909   1.36669   1.39129
 Alpha virt. eigenvalues --    1.39410   1.41451   1.42543   1.44299   1.45323
 Alpha virt. eigenvalues --    1.47547   1.50075   1.53479   1.53894   1.54355
 Alpha virt. eigenvalues --    1.55595   1.55727   1.57728   1.61887   1.62237
 Alpha virt. eigenvalues --    1.66097   1.67122   1.68105   1.69852   1.73047
 Alpha virt. eigenvalues --    1.75505   1.75974   1.76611   1.79592   1.79816
 Alpha virt. eigenvalues --    1.82872   1.86017   1.89150   1.92205   1.93589
 Alpha virt. eigenvalues --    1.95570   1.99584   2.01663   2.01711   2.07692
 Alpha virt. eigenvalues --    2.12249   2.17819   2.19934   2.21388   2.22290
 Alpha virt. eigenvalues --    2.24428   2.29088   2.34377   2.35944   2.37609
 Alpha virt. eigenvalues --    2.42214   2.48953   2.52897   2.70122   2.74904
 Alpha virt. eigenvalues --    2.83247   2.83957   2.87316   2.88935   2.90937
 Alpha virt. eigenvalues --    2.93063   3.02036   3.04283   3.06562   3.06669
 Alpha virt. eigenvalues --    3.08321   3.12186   3.12204   3.13829   3.16852
 Alpha virt. eigenvalues --    3.17022   3.19791   3.23327   3.23879   3.25869
 Alpha virt. eigenvalues --    3.29618   3.31505   3.39799   3.41397   3.44396
 Alpha virt. eigenvalues --    3.48490   3.49703   3.53251   3.53743   3.66801
 Alpha virt. eigenvalues --    3.71513   3.74551   3.75405   3.77014   3.79344
 Alpha virt. eigenvalues --    3.84220   3.88336   3.91241   3.92781   3.94406
 Alpha virt. eigenvalues --    3.98463   4.01904   4.03611   4.05178   4.05653
 Alpha virt. eigenvalues --    4.11056   4.11383   4.11683   4.13366   4.14405
 Alpha virt. eigenvalues --    4.14785   4.16213   4.16434   4.17865   4.18544
 Alpha virt. eigenvalues --    4.19420   4.20558   4.21467   4.21629   4.22956
 Alpha virt. eigenvalues --    4.22974   4.23690   4.23962   4.25170   4.28690
 Alpha virt. eigenvalues --    4.32897   4.32904   4.33908   4.35317   4.37496
 Alpha virt. eigenvalues --    4.39559   4.42054   4.43363   4.43852   4.46985
 Alpha virt. eigenvalues --    4.48137   4.52411   4.53093   4.54523   4.55759
 Alpha virt. eigenvalues --    4.57221   4.57284   4.59169   4.60150   4.62783
 Alpha virt. eigenvalues --    4.63984   4.65760   4.67507   4.69104   4.70552
 Alpha virt. eigenvalues --    4.72638   4.73561   4.74626   4.78599   4.80280
 Alpha virt. eigenvalues --    4.81697   4.83873   4.86258   4.88914   4.90907
 Alpha virt. eigenvalues --    5.00282   5.03700   5.03991   5.07768   5.10862
 Alpha virt. eigenvalues --    5.11895   5.14534   5.25456   5.26599   5.41343
 Alpha virt. eigenvalues --    5.43646   5.47576   5.49509   5.56218   5.62649
 Alpha virt. eigenvalues --    5.69455   5.77112   5.85389   5.87507   5.98390
 Alpha virt. eigenvalues --    6.15940   6.26733   6.30611   6.41435   6.52538
 Alpha virt. eigenvalues --    6.58383   6.58985   6.59090   6.59256   6.59351
 Alpha virt. eigenvalues --    6.59548   6.59641   6.59786   6.60063   6.60401
 Alpha virt. eigenvalues --    6.60747   6.60753   6.61700   6.63102   6.65681
 Alpha virt. eigenvalues --    6.65789   6.72134   6.72970   6.73620   6.76926
 Alpha virt. eigenvalues --    6.77629   6.78909   6.80745   6.88928   6.92999
 Alpha virt. eigenvalues --    6.93158   7.12642   7.15467   7.16882   7.19279
 Alpha virt. eigenvalues --    7.20932   7.23246   7.27020   7.36993   7.37082
 Alpha virt. eigenvalues --    7.39647   7.40197   7.40852   7.41887   7.46285
 Alpha virt. eigenvalues --    7.47643   7.52547   7.53567   7.95699   8.16418
 Alpha virt. eigenvalues --    9.52123   9.60447   9.61487   9.62453   9.68852
 Alpha virt. eigenvalues --    9.76352  10.31331  11.10382  11.55934  12.21393
 Alpha virt. eigenvalues --   12.34569  13.33171  13.53589
          Condensed to atoms (all electrons):
               1          2          3          4          5          6
     1  C    4.208808   0.433256   0.433257   0.469802   0.191507  -0.007922
     2  F    0.433256   8.740928  -0.045685  -0.040226  -0.023834   0.001570
     3  F    0.433257  -0.045685   8.740925  -0.040226  -0.023833   0.001570
     4  F    0.469802  -0.040226  -0.040226   8.715682  -0.064762   0.012933
     5  C    0.191507  -0.023834  -0.023833  -0.064762   5.036915   0.283574
     6  C   -0.007922   0.001570   0.001570   0.012933   0.283574   5.660528
     7  C    0.002406  -0.000082  -0.000082   0.000752   0.005574   0.155621
     8  O    0.000247   0.000000   0.000000  -0.000000  -0.003849  -0.067713
     9  C   -0.000079  -0.000000  -0.000000  -0.000004  -0.001363  -0.027596
    10  F   -0.000002   0.000000   0.000000   0.000000   0.000434   0.008005
    11  F   -0.000002   0.000000   0.000000   0.000000   0.000434   0.008005
    12  F    0.000000   0.000000   0.000000   0.000000  -0.000075   0.002969
    13  H   -0.002194   0.000192   0.000192   0.009093  -0.031087   0.364358
    14  O   -0.008171  -0.002988  -0.002988   0.000303   0.449620  -0.041736
    15  H    0.001927  -0.000099  -0.000099  -0.000020  -0.044080  -0.014632
               7          8          9         10         11         12
     1  C    0.002406   0.000247  -0.000079  -0.000002  -0.000002   0.000000
     2  F   -0.000082   0.000000  -0.000000   0.000000   0.000000   0.000000
     3  F   -0.000082   0.000000  -0.000000   0.000000   0.000000   0.000000
     4  F    0.000752  -0.000000  -0.000004   0.000000   0.000000   0.000000
     5  C    0.005574  -0.003849  -0.001363   0.000434   0.000434  -0.000075
     6  C    0.155621  -0.067713  -0.027596   0.008005   0.008005   0.002969
     7  C    4.834995   0.662648   0.252049  -0.045465  -0.045464  -0.028974
     8  O    0.662648   7.775818  -0.025785  -0.000146  -0.000146  -0.001970
     9  C    0.252049  -0.025785   4.255587   0.415323   0.415322   0.470337
    10  F   -0.045465  -0.000146   0.415323   8.780251  -0.043895  -0.039263
    11  F   -0.045464  -0.000146   0.415322  -0.043895   8.780251  -0.039263
    12  F   -0.028974  -0.001970   0.470337  -0.039263  -0.039263   8.680186
    13  H   -0.026882   0.002049   0.004669   0.001235   0.001235   0.000108
    14  O   -0.005874  -0.031132   0.000105  -0.000000  -0.000000   0.000000
    15  H   -0.003831   0.069545   0.000668  -0.000013  -0.000013   0.000001
              13         14         15
     1  C   -0.002194  -0.008171   0.001927
     2  F    0.000192  -0.002988  -0.000099
     3  F    0.000192  -0.002988  -0.000099
     4  F    0.009093   0.000303  -0.000020
     5  C   -0.031087   0.449620  -0.044080
     6  C    0.364358  -0.041736  -0.014632
     7  C   -0.026882  -0.005874  -0.003831
     8  O    0.002049  -0.031132   0.069545
     9  C    0.004669   0.000105   0.000668
    10  F    0.001235  -0.000000  -0.000013
    11  F    0.001235  -0.000000  -0.000013
    12  F    0.000108   0.000000   0.000001
    13  H    0.525185   0.001945  -0.000242
    14  O    0.001945   7.721435   0.292934
    15  H   -0.000242   0.292934   0.354538
 Mulliken charges:
               1
     1  C    0.277161
     2  F   -0.063031
     3  F   -0.063030
     4  F   -0.063327
     5  C    0.224825
     6  C   -0.339534
     7  C    0.242608
     8  O   -0.379566
     9  C    0.240768
    10  F   -0.076464
    11  F   -0.076464
    12  F   -0.044057
    13  H    0.150146
    14  O   -0.373452
    15  H    0.343417
 Sum of Mulliken charges =  -0.00000
 Mulliken charges with hydrogens summed into heavy atoms:
               1
     1  C    0.277161
     2  F   -0.063031
     3  F   -0.063030
     4  F   -0.063327
     5  C    0.224825
     6  C   -0.189388
     7  C    0.242608
     8  O   -0.379566
     9  C    0.240768
    10  F   -0.076464
    11  F   -0.076464
    12  F   -0.044057
    14  O   -0.030035
 Electronic spatial extent (au):  <R**2>=           2826.8418
 Charge=             -0.0000 electrons
 Dipole moment (field-independent basis, Debye):
    X=              0.2978    Y=             -0.6104    Z=              0.0000  Tot=              0.6792
 Quadrupole moment (field-independent basis, Debye-Ang):
   XX=            -75.3565   YY=            -69.2095   ZZ=            -67.7622
   XY=              0.6015   XZ=              0.0009   YZ=              0.0000
 Traceless Quadrupole moment (field-independent basis, Debye-Ang):
   XX=             -4.5804   YY=              1.5666   ZZ=              3.0138
   XY=              0.6015   XZ=              0.0009   YZ=              0.0000
 Octapole moment (field-independent basis, Debye-Ang**2):
  XXX=              0.4514  YYY=            -11.4945  ZZZ=              0.0007  XYY=              3.3223
  XXY=             -8.6217  XXZ=              0.0003  XZZ=             -0.9872  YZZ=             -1.4270
  YYZ=              0.0003  XYZ=              0.0006
 Hexadecapole moment (field-independent basis, Debye-Ang**3):
 XXXX=          -2238.8495 YYYY=           -421.5814 ZZZZ=           -178.6232 XXXY=              0.3875
 XXXZ=              0.1309 YYYX=              9.7352 YYYZ=              0.0081 ZZZX=              0.1310
 ZZZY=              0.0113 XXYY=           -455.5518 XXZZ=           -401.8992 YYZZ=           -100.8798
 XXYZ=              0.0032 YYXZ=              0.0436 ZZXY=             -4.1278
 N-N= 8.833047665061D+02 E-N=-3.994363420871D+03  KE= 9.357961058505D+02
 Calling FoFJK, ICntrl=      2127 FMM=F ISym2X=0 I1Cent= 0 IOpClX= 0 NMat=1 NMatS=1 NMatT=0.
 ***** Axes restored to original set *****
 -------------------------------------------------------------------
 Center     Atomic                   Forces (Hartrees/Bohr)
 Number     Number              X              Y              Z
 -------------------------------------------------------------------
      1        6           0.004418166    0.002407733    0.000000113
      2        9          -0.002543491   -0.000091485    0.002686131
      3        9          -0.002542704   -0.000092146   -0.002686354
      4        9          -0.001110998   -0.003080776   -0.000000053
      5        6           0.002171501    0.000448066    0.000000156
      6        6          -0.001069525    0.001798002   -0.000000164
      7        6          -0.002373599    0.004064403   -0.000000300
      8        8          -0.000669173   -0.005360452    0.000000252
      9        6          -0.003482866    0.003439490   -0.000001036
     10        9           0.001519206   -0.002173883   -0.003005217
     11        9           0.001518466   -0.002173309    0.003006009
     12        9           0.002772297    0.000056442    0.000000434
     13        1           0.000058969    0.001969910   -0.000000219
     14        8           0.002866214   -0.002441337    0.000000530
     15        1          -0.001532464    0.001229340   -0.000000283
 -------------------------------------------------------------------
 Cartesian Forces:  Max     0.005360452 RMS     0.002158977

 GradGradGradGradGradGradGradGradGradGradGradGradGradGradGradGradGradGrad
 Berny optimization.
 FormGI is forming the generalized inverse of G from B-inverse, IUseBI=4.
 Internal  Forces:  Max     0.005381123 RMS     0.001700059
 Search for a local minimum.
 Step number   1 out of a maximum of   68
 All quantities printed in internal units (Hartrees-Bohrs-Radians)
 Mixed Optimization -- RFO/linear search
 Second derivative matrix not updated -- first step.
 ITU=  0
     Eigenvalues ---    0.00230   0.00442   0.00811   0.01587   0.01684
     Eigenvalues ---    0.02119   0.02655   0.02853   0.10629   0.10846
     Eigenvalues ---    0.11036   0.11093   0.16000   0.16000   0.22000
     Eigenvalues ---    0.25000   0.25000   0.25000   0.25000   0.25000
     Eigenvalues ---    0.25000   0.25000   0.25000   0.25000   0.25000
     Eigenvalues ---    0.27573   0.29935   0.36462   0.39869   0.48823
     Eigenvalues ---    0.53525   0.56139   0.56139   0.57655   0.57656
     Eigenvalues ---    0.57775   0.60879   0.63919   0.93011
 RFO step:  Lambda=-4.32531693D-04 EMin= 2.30000000D-03
 Linear search not attempted -- first point.
 Iteration  1 RMS(Cart)=  0.01001894 RMS(Int)=  0.00005903
 Iteration  2 RMS(Cart)=  0.00005502 RMS(Int)=  0.00000970
 Iteration  3 RMS(Cart)=  0.00000000 RMS(Int)=  0.00000970
 Variable       Old X    -DE/DX   Delta X   Delta X   Delta X     New X
                                 (Linear)    (Quad)   (Total)
    R1        2.52845  -0.00350   0.00000  -0.00607  -0.00607   2.52238
    R2        2.52845  -0.00350   0.00000  -0.00607  -0.00607   2.52238
    R3        2.52745  -0.00293   0.00000  -0.00507  -0.00507   2.52239
    R4        2.88092  -0.00197   0.00000  -0.00658  -0.00658   2.87435
    R5        2.56467   0.00230   0.00000   0.00429   0.00429   2.56896
    R6        2.47968   0.00134   0.00000   0.00210   0.00210   2.48178
    R7        2.71732   0.00175   0.00000   0.00440   0.00440   2.72171
    R8        2.03366   0.00197   0.00000   0.00539   0.00539   2.03905
    R9        2.31576   0.00538   0.00000   0.00578   0.00578   2.32154
   R10        2.93082  -0.00243   0.00000  -0.00881  -0.00881   2.92201
   R11        2.54134  -0.00377   0.00000  -0.00672  -0.00672   2.53462
   R12        2.54134  -0.00377   0.00000  -0.00672  -0.00672   2.53462
   R13        2.50251  -0.00224   0.00000  -0.00368  -0.00368   2.49883
   R14        1.87772   0.00093   0.00000   0.00190   0.00190   1.87962
    A1        1.88648   0.00109   0.00000   0.00321   0.00319   1.88967
    A2        1.88756   0.00180   0.00000   0.00777   0.00775   1.89531
    A3        1.92802  -0.00134   0.00000  -0.00564  -0.00566   1.92236
    A4        1.88755   0.00181   0.00000   0.00777   0.00776   1.89531
    A5        1.92803  -0.00134   0.00000  -0.00564  -0.00566   1.92236
    A6        1.94448  -0.00181   0.00000  -0.00665  -0.00667   1.93782
    A7        2.14054  -0.00023   0.00000  -0.00092  -0.00092   2.13962
    A8        1.95916   0.00025   0.00000   0.00100   0.00100   1.96016
    A9        2.18348  -0.00002   0.00000  -0.00007  -0.00007   2.18341
   A10        2.06781  -0.00090   0.00000  -0.00410  -0.00410   2.06371
   A11        2.10376   0.00035   0.00000   0.00139   0.00139   2.10515
   A12        2.11161   0.00056   0.00000   0.00272   0.00272   2.11433
   A13        2.17066   0.00118   0.00000   0.00471   0.00471   2.17537
   A14        2.03720  -0.00125   0.00000  -0.00501  -0.00501   2.03219
   A15        2.07532   0.00007   0.00000   0.00030   0.00030   2.07562
   A16        1.91973  -0.00147   0.00000  -0.00636  -0.00638   1.91335
   A17        1.91973  -0.00147   0.00000  -0.00635  -0.00638   1.91335
   A18        1.95356  -0.00193   0.00000  -0.00669  -0.00670   1.94686
   A19        1.87837   0.00096   0.00000   0.00180   0.00177   1.88014
   A20        1.89532   0.00205   0.00000   0.00914   0.00912   1.90444
   A21        1.89532   0.00205   0.00000   0.00914   0.00913   1.90444
   A22        1.86961  -0.00325   0.00000  -0.02026  -0.02026   1.84935
    D1       -2.09840  -0.00018   0.00000  -0.00162  -0.00162  -2.10001
    D2        1.04319  -0.00018   0.00000  -0.00162  -0.00161   1.04158
    D3        2.09843   0.00018   0.00000   0.00161   0.00161   2.10003
    D4       -1.04317   0.00018   0.00000   0.00161   0.00161  -1.04156
    D5        0.00001  -0.00000   0.00000  -0.00000  -0.00000   0.00001
    D6       -3.14158  -0.00000   0.00000  -0.00000  -0.00000  -3.14159
    D7        3.14159   0.00000   0.00000   0.00000   0.00000   3.14159
    D8       -0.00001   0.00000   0.00000   0.00000   0.00000  -0.00000
    D9        0.00000  -0.00000   0.00000  -0.00000  -0.00000   0.00000
   D10        3.14159   0.00000   0.00000   0.00000   0.00000   3.14159
   D11       -3.14159  -0.00000   0.00000  -0.00000  -0.00000  -3.14159
   D12        0.00000   0.00000   0.00000   0.00000   0.00000   0.00000
   D13       -0.00000   0.00000   0.00000  -0.00000  -0.00000  -0.00000
   D14        3.14159   0.00000   0.00000   0.00001   0.00001  -3.14159
   D15       -3.14159  -0.00000   0.00000  -0.00000  -0.00000   3.14159
   D16       -0.00000   0.00000   0.00000   0.00000   0.00000   0.00000
   D17       -1.03298   0.00031   0.00000   0.00277   0.00276  -1.03022
   D18        1.03299  -0.00031   0.00000  -0.00278  -0.00277   1.03023
   D19       -3.14159   0.00000   0.00000  -0.00000  -0.00000  -3.14159
   D20        2.10861   0.00031   0.00000   0.00278   0.00277   2.11138
   D21       -2.10860  -0.00031   0.00000  -0.00277  -0.00276  -2.11136
   D22        0.00000   0.00000   0.00000   0.00001   0.00001   0.00001
         Item               Value     Threshold  Converged?
 Maximum Force            0.005381     0.000450     NO 
 RMS     Force            0.001700     0.000300     NO 
 Maximum Displacement     0.037251     0.001800     NO 
 RMS     Displacement     0.010031     0.001200     NO 
 Predicted change in Energy=-2.165579D-04
 GradGradGradGradGradGradGradGradGradGradGradGradGradGradGradGradGradGrad

                          Input orientation:                          
 ---------------------------------------------------------------------
 Center     Atomic      Atomic             Coordinates (Angstroms)
 Number     Number       Type             X           Y           Z
 ---------------------------------------------------------------------
      1          6           0        2.518916    0.278846    0.000240
      2          9           0        3.222938   -0.061962   -1.081363
      3          9           0        3.222678   -0.061807    1.082059
      4          9           0        2.352976    1.603282    0.000125
      5          6           0        1.178045   -0.439223    0.000129
      6          6           0       -0.008185    0.224795   -0.000073
      7          6           0       -1.222635   -0.549468   -0.000165
      8          8           0       -1.268090   -1.777132   -0.000079
      9          6           0       -2.547418    0.247948   -0.000399
     10          9           0       -2.598265    1.037398    1.082731
     11          9           0       -2.597991    1.037219   -1.083672
     12          9           0       -3.597771   -0.555356   -0.000465
     13          1           0       -0.034118    1.303501   -0.000159
     14          8           0        1.312161   -1.745657    0.000248
     15          1           0        0.388778   -2.115387    0.000160
 ---------------------------------------------------------------------
                    Distance matrix (angstroms):
                    1          2          3          4          5
     1  C    0.000000
     2  F    1.334788   0.000000
     3  F    1.334788   2.163421   0.000000
     4  F    1.334791   2.167829   2.167829   0.000000
     5  C    1.521038   2.343829   2.343830   2.356330   0.000000
     6  C    2.527679   3.419294   3.419302   2.734101   1.359435
     7  C    3.832141   4.601061   4.601068   4.173647   2.403210
     8  O    4.309113   4.927506   4.927510   4.953718   2.788114
     9  C    5.066428   5.878906   5.878918   5.084368   3.788309
    10  F    5.285142   6.307004   5.923819   5.099711   4.196780
    11  F    5.285142   5.923800   6.307014   5.099717   4.196779
    12  F    6.173309   6.923427   6.923436   6.330175   4.777228
    13  H    2.750981   3.693494   3.693505   2.405844   2.122835
    14  O    2.356876   2.766907   2.766901   3.506948   1.313300
    15  H    3.204659   3.663156   3.663152   4.205541   1.852692
                    6          7          8          9         10
     6  C    0.000000
     7  C    1.440267   0.000000
     8  O    2.365390   1.228505   0.000000
     9  C    2.539339   1.546261   2.395335   0.000000
    10  F    2.922551   2.362873   3.295971   1.341263   0.000000
    11  F    2.922552   2.362873   3.295964   1.341263   2.166403
    12  F    3.673385   2.375143   2.630618   1.322323   2.170067
    13  H    1.079018   2.201378   3.318582   2.725963   2.796125
    14  O    2.371918   2.802866   2.580444   4.344055   4.920224
    15  H    2.373611   2.246943   1.691043   3.769164   4.475985
                   11         12         13         14         15
    11  F    0.000000
    12  F    2.170067   0.000000
    13  H    2.796131   4.019325   0.000000
    14  O    4.920221   5.052153   3.333142   0.000000
    15  H    4.475980   4.280919   3.444943   0.994655   0.000000
 Stoichiometry    C5H2F6O2
 Framework group  C1[X(C5H2F6O2)]
 Deg. of freedom    39
 Full point group                 C1      NOp   1
 Largest Abelian subgroup         C1      NOp   1
 Largest concise Abelian subgroup C1      NOp   1
                         Standard orientation:                         
 ---------------------------------------------------------------------
 Center     Atomic      Atomic             Coordinates (Angstroms)
 Number     Number       Type             X           Y           Z
 ---------------------------------------------------------------------
      1          6           0        2.516372   -0.312354   -0.000294
      2          9           0        3.220381    0.028481    1.081309
      3          9           0        3.220121    0.028327   -1.082113
      4          9           0        2.350485   -1.636796   -0.000179
      5          6           0        1.175474    0.405663   -0.000183
      6          6           0       -0.010730   -0.258401    0.000019
      7          6           0       -1.225210    0.515814    0.000111
      8          8           0       -1.270714    1.743476    0.000025
      9          6           0       -2.549963   -0.281654    0.000344
     10          9           0       -2.600779   -1.071106   -1.082785
     11          9           0       -2.600504   -1.070927    1.083618
     12          9           0       -3.600347    0.521609    0.000411
     13          1           0       -0.036621   -1.337109    0.000105
     14          8           0        1.309539    1.712102   -0.000302
     15          1           0        0.386141    2.081796   -0.000214
 ---------------------------------------------------------------------
 Rotational constants (GHZ):           1.6935316           0.3790432           0.3476660
 Standard basis: GTBas3 (6D, 7F)
 There are   413 symmetry adapted cartesian basis functions of A   symmetry.
 There are   374 symmetry adapted basis functions of A   symmetry.
   374 basis functions,   586 primitive gaussians,   413 cartesian basis functions
    51 alpha electrons       51 beta electrons
       nuclear repulsion energy       884.9681949518 Hartrees.
 NAtoms=   15 NActive=   15 NUniq=   15 SFac= 1.00D+00 NAtFMM=   60 NAOKFM=F Big=F
 Integral buffers will be    131072 words long.
 Raffenetti 2 integral format.
 Two-electron integral symmetry is turned on.
 One-electron integrals computed using PRISM.
 NBasis=   374 RedAO= T EigKep=  3.10D-04  NBF=   374
 NBsUse=   374 1.00D-06 EigRej= -1.00D+00 NBFU=   374
 Initial guess from the checkpoint file:  "/home/artemiy/opt/gaussian/scr/Gau-11321.chk"
 B after Tr=    -0.000000   -0.000000   -0.000000
         Rot=    1.000000    0.000000   -0.000000   -0.000292 Ang=   0.03 deg.
 ExpMin= 1.61D-01 ExpMax= 7.00D+03 ExpMxC= 1.05D+03 IAcc=2 IRadAn=         4 AccDes= 0.00D+00
 Harris functional with IExCor=  402 and IRadAn=       4 diagonalized for initial guess.
 HarFok:  IExCor=  402 AccDes= 0.00D+00 IRadAn=         4 IDoV= 1 UseB2=F ITyADJ=14
 ICtDFT=  3500011 ScaDFX=  1.000000  1.000000  1.000000  1.000000
 FoFCou: FMM=F IPFlag=           0 FMFlag=      100000 FMFlg1=           0
         NFxFlg=           0 DoJE=T BraDBF=F KetDBF=T FulRan=T
         wScrn=  0.000000 ICntrl=       500 IOpCl=  0 I1Cent=   200000004 NGrid=           0
         NMat0=    1 NMatS0=      1 NMatT0=    0 NMatD0=    1 NMtDS0=    0 NMtDT0=    0
 Petite list used in FoFCou.
 Requested convergence on RMS density matrix=1.00D-08 within 128 cycles.
 Requested convergence on MAX density matrix=1.00D-06.
 Requested convergence on             energy=1.00D-06.
 No special actions if energy rises.
 Integral accuracy reduced to 1.0D-05 until final iterations.
 Initial convergence to 1.0D-05 achieved.  Increase integral accuracy.
 SCF Done:  E(RB3LYP) =  -941.274099654     A.U. after   10 cycles
            NFock= 10  Conv=0.56D-08     -V/T= 2.0058
 Calling FoFJK, ICntrl=      2127 FMM=F ISym2X=0 I1Cent= 0 IOpClX= 0 NMat=1 NMatS=1 NMatT=0.
 ***** Axes restored to original set *****
 -------------------------------------------------------------------
 Center     Atomic                   Forces (Hartrees/Bohr)
 Number     Number              X              Y              Z
 -------------------------------------------------------------------
      1        6           0.000149792    0.000000855   -0.000000292
      2        9          -0.000009426    0.000602895    0.000621996
      3        9          -0.000009286    0.000602805   -0.000621904
      4        9           0.000832426   -0.000575794    0.000000192
      5        6           0.000353407    0.000722978    0.000000038
      6        6          -0.000587452   -0.000175894    0.000000292
      7        6          -0.000355599    0.001757117   -0.000001098
      8        8           0.001173842   -0.001268440    0.000000594
      9        6           0.000585643    0.000376999    0.000000220
     10        9          -0.000579660   -0.000473017   -0.000671896
     11        9          -0.000579807   -0.000473149    0.000671984
     12        9           0.000093291    0.000952694   -0.000000126
     13        1          -0.000071849   -0.000306333    0.000000023
     14        8           0.000364761   -0.000026839    0.000000040
     15        1          -0.001360083   -0.001716878   -0.000000064
 -------------------------------------------------------------------
 Cartesian Forces:  Max     0.001757117 RMS     0.000636422

 GradGradGradGradGradGradGradGradGradGradGradGradGradGradGradGradGradGrad
 Berny optimization.
 Using GEDIIS/GDIIS optimizer.
 FormGI is forming the generalized inverse of G from B-inverse, IUseBI=4.
 Internal  Forces:  Max     0.002045686 RMS     0.000734797
 Search for a local minimum.
 Step number   2 out of a maximum of   68
 All quantities printed in internal units (Hartrees-Bohrs-Radians)
 Mixed Optimization -- En-DIIS/RFO-DIIS
 Update second derivatives using D2CorX and points    1    2
 DE= -1.73D-04 DEPred=-2.17D-04 R= 8.01D-01
 TightC=F SS=  1.41D+00  RLast= 3.87D-02 DXNew= 5.0454D-01 1.1595D-01
 Trust test= 8.01D-01 RLast= 3.87D-02 DXMaxT set to 3.00D-01
 ITU=  1  0
 Use linear search instead of GDIIS.
     Eigenvalues ---    0.00230   0.00442   0.00813   0.01587   0.01684
     Eigenvalues ---    0.02118   0.02655   0.02853   0.10734   0.10950
     Eigenvalues ---    0.11149   0.11265   0.16000   0.17267   0.21098
     Eigenvalues ---    0.24262   0.25000   0.25000   0.25000   0.25000
     Eigenvalues ---    0.25000   0.25000   0.25000   0.25000   0.27207
     Eigenvalues ---    0.29256   0.34736   0.37054   0.40983   0.46255
     Eigenvalues ---    0.52012   0.53947   0.56139   0.56951   0.57656
     Eigenvalues ---    0.57751   0.60660   0.64506   0.90477
 RFO step:  Lambda=-6.25329527D-05 EMin= 2.30000000D-03
 Quartic linear search produced a step of -0.16747.
 Iteration  1 RMS(Cart)=  0.00554436 RMS(Int)=  0.00001128
 Iteration  2 RMS(Cart)=  0.00001553 RMS(Int)=  0.00000109
 Iteration  3 RMS(Cart)=  0.00000000 RMS(Int)=  0.00000109
 Variable       Old X    -DE/DX   Delta X   Delta X   Delta X     New X
                                 (Linear)    (Quad)   (Total)
    R1        2.52238  -0.00066   0.00102  -0.00286  -0.00184   2.52054
    R2        2.52238  -0.00066   0.00102  -0.00286  -0.00184   2.52054
    R3        2.52239  -0.00067   0.00085  -0.00256  -0.00171   2.52068
    R4        2.87435   0.00115   0.00110   0.00112   0.00222   2.87657
    R5        2.56896   0.00047  -0.00072   0.00208   0.00136   2.57032
    R6        2.48178   0.00163  -0.00035   0.00278   0.00243   2.48421
    R7        2.72171  -0.00075  -0.00074  -0.00019  -0.00093   2.72078
    R8        2.03905  -0.00030  -0.00090   0.00100   0.00010   2.03915
    R9        2.32154   0.00122  -0.00097   0.00291   0.00194   2.32348
   R10        2.92201   0.00061   0.00148  -0.00094   0.00054   2.92255
   R11        2.53462  -0.00080   0.00113  -0.00329  -0.00217   2.53245
   R12        2.53462  -0.00080   0.00113  -0.00329  -0.00217   2.53245
   R13        2.49883  -0.00065   0.00062  -0.00205  -0.00143   2.49740
   R14        1.87962   0.00190  -0.00032   0.00384   0.00352   1.88314
    A1        1.88967  -0.00055  -0.00053  -0.00058  -0.00111   1.88856
    A2        1.89531  -0.00088  -0.00130  -0.00060  -0.00190   1.89341
    A3        1.92236   0.00062   0.00095   0.00032   0.00127   1.92364
    A4        1.89531  -0.00088  -0.00130  -0.00060  -0.00190   1.89341
    A5        1.92236   0.00062   0.00095   0.00032   0.00127   1.92364
    A6        1.93782   0.00099   0.00112   0.00107   0.00219   1.94000
    A7        2.13962   0.00029   0.00015   0.00069   0.00084   2.14046
    A8        1.96016   0.00028  -0.00017   0.00124   0.00108   1.96124
    A9        2.18341  -0.00057   0.00001  -0.00193  -0.00192   2.18149
   A10        2.06371  -0.00083   0.00069  -0.00445  -0.00377   2.05995
   A11        2.10515   0.00050  -0.00023   0.00244   0.00220   2.10735
   A12        2.11433   0.00034  -0.00045   0.00202   0.00156   2.11589
   A13        2.17537  -0.00184  -0.00079  -0.00463  -0.00541   2.16996
   A14        2.03219   0.00084   0.00084   0.00121   0.00205   2.03424
   A15        2.07562   0.00100  -0.00005   0.00341   0.00336   2.07898
   A16        1.91335   0.00070   0.00107   0.00047   0.00155   1.91490
   A17        1.91335   0.00070   0.00107   0.00047   0.00154   1.91490
   A18        1.94686   0.00081   0.00112   0.00022   0.00134   1.94820
   A19        1.88014  -0.00046  -0.00030  -0.00023  -0.00052   1.87961
   A20        1.90444  -0.00090  -0.00153  -0.00048  -0.00201   1.90244
   A21        1.90444  -0.00090  -0.00153  -0.00048  -0.00201   1.90244
   A22        1.84935   0.00205   0.00339   0.00421   0.00760   1.85696
    D1       -2.10001   0.00005   0.00027  -0.00016   0.00011  -2.09990
    D2        1.04158   0.00005   0.00027  -0.00016   0.00011   1.04169
    D3        2.10003  -0.00005  -0.00027   0.00015  -0.00012   2.09991
    D4       -1.04156  -0.00005  -0.00027   0.00015  -0.00012  -1.04168
    D5        0.00001   0.00000   0.00000  -0.00000  -0.00000   0.00001
    D6       -3.14159   0.00000   0.00000  -0.00000  -0.00000  -3.14159
    D7        3.14159   0.00000  -0.00000   0.00000   0.00000   3.14159
    D8       -0.00000   0.00000  -0.00000   0.00000   0.00000  -0.00000
    D9        0.00000   0.00000   0.00000   0.00000   0.00000   0.00000
   D10        3.14159   0.00000  -0.00000   0.00000   0.00000   3.14159
   D11       -3.14159   0.00000   0.00000   0.00000   0.00000  -3.14159
   D12        0.00000   0.00000  -0.00000   0.00000   0.00000   0.00000
   D13       -0.00000   0.00000   0.00000   0.00001   0.00002   0.00001
   D14       -3.14159  -0.00000  -0.00000  -0.00001  -0.00001   3.14159
   D15        3.14159   0.00000   0.00000   0.00001   0.00001  -3.14158
   D16        0.00000  -0.00000  -0.00000  -0.00001  -0.00001  -0.00001
   D17       -1.03022  -0.00014  -0.00046  -0.00013  -0.00059  -1.03081
   D18        1.03023   0.00014   0.00046   0.00016   0.00062   1.03085
   D19       -3.14159   0.00000   0.00000   0.00001   0.00002  -3.14158
   D20        2.11138  -0.00014  -0.00046  -0.00015  -0.00061   2.11077
   D21       -2.11136   0.00014   0.00046   0.00014   0.00060  -2.11076
   D22        0.00001  -0.00000  -0.00000  -0.00001  -0.00001   0.00000
         Item               Value     Threshold  Converged?
 Maximum Force            0.002046     0.000450     NO 
 RMS     Force            0.000735     0.000300     NO 
 Maximum Displacement     0.019453     0.001800     NO 
 RMS     Displacement     0.005545     0.001200     NO 
 Predicted change in Energy=-3.875355D-05
 GradGradGradGradGradGradGradGradGradGradGradGradGradGradGradGradGradGrad

                          Input orientation:                          
 ---------------------------------------------------------------------
 Center     Atomic      Atomic             Coordinates (Angstroms)
 Number     Number       Type             X           Y           Z
 ---------------------------------------------------------------------
      1          6           0        2.521210    0.277751    0.000243
      2          9           0        3.224930   -0.063753   -1.080132
      3          9           0        3.224659   -0.063595    1.080843
      4          9           0        2.362167    1.602121    0.000127
      5          6           0        1.177199   -0.436928    0.000126
      6          6           0       -0.008263    0.229928   -0.000078
      7          6           0       -1.221006   -0.546096   -0.000175
      8          8           0       -1.257796   -1.775076   -0.000075
      9          6           0       -2.548990    0.246534   -0.000398
     10          9           0       -2.604907    1.035250    1.081596
     11          9           0       -2.604654    1.035063   -1.082542
     12          9           0       -3.596830   -0.558803   -0.000450
     13          1           0       -0.034313    1.308683   -0.000163
     14          8           0        1.306195   -1.745171    0.000242
     15          1           0        0.382419   -2.118911    0.000150
 ---------------------------------------------------------------------
                    Distance matrix (angstroms):
                    1          2          3          4          5
     1  C    0.000000
     2  F    1.333812   0.000000
     3  F    1.333812   2.160975   0.000000
     4  F    1.333885   2.164821   2.164821   0.000000
     5  C    1.522213   2.345084   2.345084   2.358361   0.000000
     6  C    2.529926   3.421448   3.421452   2.738950   1.360153
     7  C    3.831828   4.600577   4.600581   4.177794   2.400688
     8  O    4.300580   4.918331   4.918328   4.950716   2.778460
     9  C    5.070296   5.882198   5.882200   5.094808   3.788351
    10  F    5.293412   6.314101   5.932225   5.114952   4.200144
    11  F    5.293433   5.932238   6.314125   5.114981   4.200159
    12  F    6.174969   6.924392   6.924387   6.338709   4.775584
    13  H    2.755635   3.697645   3.697651   2.414378   2.124834
    14  O    2.359761   2.770544   2.770541   3.509905   1.314587
    15  H    3.212230   3.670226   3.670225   4.214912   1.860307
                    6          7          8          9         10
     6  C    0.000000
     7  C    1.439777   0.000000
     8  O    2.362493   1.229531   0.000000
     9  C    2.540781   1.546545   2.398768   0.000000
    10  F    2.925939   2.363486   3.298887   1.340116   0.000000
    11  F    2.925955   2.363485   3.298885   1.340116   2.164138
    12  F    3.674222   2.375858   2.636362   1.321566   2.166966
    13  H    1.079069   2.201919   3.317602   2.729791   2.802306
    14  O    2.372513   2.797236   2.564166   4.339279   4.919023
    15  H    2.381109   2.246045   1.675866   3.766761   4.476871
                   11         12         13         14         15
    11  F    0.000000
    12  F    2.166966   0.000000
    13  H    2.802332   4.022316   0.000000
    14  O    4.919030   5.044515   3.335114   0.000000
    15  H    4.476871   4.274150   3.452835   0.996517   0.000000
 Stoichiometry    C5H2F6O2
 Framework group  C1[X(C5H2F6O2)]
 Deg. of freedom    39
 Full point group                 C1      NOp   1
 Largest Abelian subgroup         C1      NOp   1
 Largest concise Abelian subgroup C1      NOp   1
                         Standard orientation:                         
 ---------------------------------------------------------------------
 Center     Atomic      Atomic             Coordinates (Angstroms)
 Number     Number       Type             X           Y           Z
 ---------------------------------------------------------------------
      1          6           0        2.518247   -0.311583   -0.000296
      2          9           0        3.221943    0.029969    1.080079
      3          9           0        3.221672    0.029812   -1.080896
      4          9           0        2.359294   -1.635964   -0.000179
      5          6           0        1.174186    0.403003   -0.000179
      6          6           0       -0.011230   -0.263934    0.000025
      7          6           0       -1.224026    0.512007    0.000122
      8          8           0       -1.260901    1.740984    0.000022
      9          6           0       -2.551956   -0.280714    0.000345
     10          9           0       -2.607818   -1.069434   -1.081649
     11          9           0       -2.607566   -1.069247    1.082489
     12          9           0       -3.599851    0.524550    0.000398
     13          1           0       -0.037206   -1.342691    0.000111
     14          8           0        1.303093    1.711255   -0.000295
     15          1           0        0.379290    2.084932   -0.000203
 ---------------------------------------------------------------------
 Rotational constants (GHZ):           1.6965259           0.3785335           0.3472704
 Standard basis: GTBas3 (6D, 7F)
 There are   413 symmetry adapted cartesian basis functions of A   symmetry.
 There are   374 symmetry adapted basis functions of A   symmetry.
   374 basis functions,   586 primitive gaussians,   413 cartesian basis functions
    51 alpha electrons       51 beta electrons
       nuclear repulsion energy       884.9846509639 Hartrees.
 NAtoms=   15 NActive=   15 NUniq=   15 SFac= 1.00D+00 NAtFMM=   60 NAOKFM=F Big=F
 Integral buffers will be    131072 words long.
 Raffenetti 2 integral format.
 Two-electron integral symmetry is turned on.
 One-electron integrals computed using PRISM.
 NBasis=   374 RedAO= T EigKep=  3.11D-04  NBF=   374
 NBsUse=   374 1.00D-06 EigRej= -1.00D+00 NBFU=   374
 Initial guess from the checkpoint file:  "/home/artemiy/opt/gaussian/scr/Gau-11321.chk"
 B after Tr=     0.000000    0.000000    0.000000
         Rot=    1.000000    0.000000    0.000000    0.000065 Ang=   0.01 deg.
 Requested convergence on RMS density matrix=1.00D-08 within 128 cycles.
 Requested convergence on MAX density matrix=1.00D-06.
 Requested convergence on             energy=1.00D-06.
 No special actions if energy rises.
 SCF Done:  E(RB3LYP) =  -941.274125841     A.U. after    9 cycles
            NFock=  9  Conv=0.44D-08     -V/T= 2.0058
 Calling FoFJK, ICntrl=      2127 FMM=F ISym2X=0 I1Cent= 0 IOpClX= 0 NMat=1 NMatS=1 NMatT=0.
 ***** Axes restored to original set *****
 -------------------------------------------------------------------
 Center     Atomic                   Forces (Hartrees/Bohr)
 Number     Number              X              Y              Z
 -------------------------------------------------------------------
      1        6           0.000104440   -0.000255172   -0.000000079
      2        9           0.000147023   -0.000012143   -0.000334361
      3        9           0.000147044   -0.000012110    0.000334570
      4        9          -0.000086308    0.000276299   -0.000000011
      5        6          -0.000108276   -0.000976257   -0.000000050
      6        6          -0.000357200   -0.000192591   -0.000000674
      7        6           0.000527147    0.000847482    0.000002188
      8        8          -0.000735491   -0.000461872   -0.000001060
      9        6           0.000291659   -0.000036336   -0.000000535
     10        9          -0.000054220    0.000040443    0.000228821
     11        9          -0.000054275    0.000040613   -0.000228923
     12        9          -0.000417675   -0.000196849    0.000000007
     13        1           0.000038155   -0.000315739   -0.000000038
     14        8           0.001419630    0.001111576   -0.000000033
     15        1          -0.000861655    0.000142655    0.000000178
 -------------------------------------------------------------------
 Cartesian Forces:  Max     0.001419630 RMS     0.000417276

 GradGradGradGradGradGradGradGradGradGradGradGradGradGradGradGradGradGrad
 Berny optimization.
 Using GEDIIS/GDIIS optimizer.
 FormGI is forming the generalized inverse of G from B-inverse, IUseBI=4.
 Internal  Forces:  Max     0.001495119 RMS     0.000402581
 Search for a local minimum.
 Step number   3 out of a maximum of   68
 All quantities printed in internal units (Hartrees-Bohrs-Radians)
 Mixed Optimization -- En-DIIS/RFO-DIIS
 Swapping is turned off.
 Update second derivatives using D2CorX and points    1    2    3
 DE= -2.62D-05 DEPred=-3.88D-05 R= 6.76D-01
 TightC=F SS=  1.41D+00  RLast= 1.46D-02 DXNew= 5.0454D-01 4.3857D-02
 Trust test= 6.76D-01 RLast= 1.46D-02 DXMaxT set to 3.00D-01
 ITU=  1  1  0
     Eigenvalues ---    0.00230   0.00442   0.00810   0.01587   0.01682
     Eigenvalues ---    0.02118   0.02655   0.02853   0.10711   0.10918
     Eigenvalues ---    0.11143   0.11238   0.16000   0.17377   0.23021
     Eigenvalues ---    0.24959   0.25000   0.25000   0.25000   0.25000
     Eigenvalues ---    0.25000   0.25000   0.25000   0.26481   0.28136
     Eigenvalues ---    0.29844   0.36569   0.36882   0.37881   0.44375
     Eigenvalues ---    0.52441   0.55924   0.56139   0.57656   0.57748
     Eigenvalues ---    0.57864   0.61072   0.73433   0.88733
 En-DIIS/RFO-DIIS/Sim-DIIS IScMMF=       -3 using points:     3    2
 RFO step:  Lambda=-1.90469205D-05.
 DidBck=F Rises=F RFO-DIIS coefs:    0.81991    0.18009
 Iteration  1 RMS(Cart)=  0.00372232 RMS(Int)=  0.00000371
 Iteration  2 RMS(Cart)=  0.00000612 RMS(Int)=  0.00000009
 Iteration  3 RMS(Cart)=  0.00000000 RMS(Int)=  0.00000009
 Variable       Old X    -DE/DX   Delta X   Delta X   Delta X     New X
                                 (Linear)    (Quad)   (Total)
    R1        2.52054   0.00035   0.00033  -0.00022   0.00011   2.52065
    R2        2.52054   0.00035   0.00033  -0.00022   0.00011   2.52065
    R3        2.52068   0.00028   0.00031  -0.00026   0.00005   2.52073
    R4        2.87657   0.00027  -0.00040   0.00150   0.00110   2.87767
    R5        2.57032   0.00053  -0.00024   0.00118   0.00093   2.57125
    R6        2.48421  -0.00119  -0.00044  -0.00043  -0.00087   2.48334
    R7        2.72078   0.00025   0.00017   0.00007   0.00024   2.72102
    R8        2.03915  -0.00032  -0.00002  -0.00060  -0.00062   2.03852
    R9        2.32348   0.00048  -0.00035   0.00105   0.00070   2.32418
   R10        2.92255   0.00012  -0.00010   0.00056   0.00046   2.92301
   R11        2.53245   0.00021   0.00039  -0.00050  -0.00011   2.53234
   R12        2.53245   0.00021   0.00039  -0.00050  -0.00011   2.53234
   R13        2.49740   0.00045   0.00026   0.00001   0.00027   2.49767
   R14        1.88314   0.00075  -0.00063   0.00236   0.00173   1.88487
    A1        1.88856   0.00008   0.00020   0.00017   0.00037   1.88893
    A2        1.89341  -0.00001   0.00034  -0.00096  -0.00061   1.89280
    A3        1.92364   0.00004  -0.00023   0.00072   0.00049   1.92412
    A4        1.89341  -0.00001   0.00034  -0.00096  -0.00061   1.89280
    A5        1.92364   0.00004  -0.00023   0.00072   0.00049   1.92413
    A6        1.94000  -0.00015  -0.00039   0.00025  -0.00014   1.93986
    A7        2.14046  -0.00019  -0.00015  -0.00021  -0.00036   2.14010
    A8        1.96124  -0.00032  -0.00019  -0.00051  -0.00071   1.96053
    A9        2.18149   0.00051   0.00035   0.00072   0.00107   2.18256
   A10        2.05995   0.00150   0.00068   0.00342   0.00410   2.06404
   A11        2.10735  -0.00078  -0.00040  -0.00172  -0.00212   2.10523
   A12        2.11589  -0.00072  -0.00028  -0.00170  -0.00198   2.11391
   A13        2.16996   0.00090   0.00098   0.00051   0.00149   2.17145
   A14        2.03424  -0.00013  -0.00037   0.00042   0.00005   2.03430
   A15        2.07898  -0.00077  -0.00061  -0.00094  -0.00154   2.07744
   A16        1.91490  -0.00002  -0.00028   0.00062   0.00034   1.91524
   A17        1.91490  -0.00002  -0.00028   0.00062   0.00034   1.91524
   A18        1.94820   0.00014  -0.00024   0.00080   0.00056   1.94876
   A19        1.87961   0.00010   0.00009   0.00032   0.00041   1.88003
   A20        1.90244  -0.00010   0.00036  -0.00120  -0.00084   1.90160
   A21        1.90244  -0.00010   0.00036  -0.00120  -0.00084   1.90160
   A22        1.85696  -0.00086  -0.00137  -0.00084  -0.00221   1.85475
    D1       -2.09990   0.00008  -0.00002   0.00056   0.00054  -2.09937
    D2        1.04169   0.00008  -0.00002   0.00056   0.00054   1.04223
    D3        2.09991  -0.00008   0.00002  -0.00056  -0.00054   2.09937
    D4       -1.04168  -0.00008   0.00002  -0.00056  -0.00054  -1.04222
    D5        0.00001  -0.00000   0.00000  -0.00000  -0.00000   0.00000
    D6       -3.14159   0.00000   0.00000  -0.00000   0.00000  -3.14159
    D7        3.14159  -0.00000  -0.00000  -0.00000  -0.00000   3.14159
    D8       -0.00000  -0.00000  -0.00000  -0.00000  -0.00000  -0.00000
    D9        0.00000  -0.00000  -0.00000  -0.00001  -0.00001  -0.00001
   D10        3.14159  -0.00000  -0.00000  -0.00000  -0.00001   3.14159
   D11       -3.14159  -0.00000  -0.00000  -0.00001  -0.00001   3.14159
   D12        0.00000  -0.00000  -0.00000  -0.00000  -0.00000  -0.00000
   D13        0.00001  -0.00000  -0.00000  -0.00003  -0.00003  -0.00002
   D14        3.14159   0.00000   0.00000   0.00002   0.00002  -3.14158
   D15       -3.14158  -0.00000  -0.00000  -0.00003  -0.00004   3.14157
   D16       -0.00001   0.00000   0.00000   0.00002   0.00002   0.00001
   D17       -1.03081  -0.00005   0.00011  -0.00059  -0.00048  -1.03129
   D18        1.03085   0.00005  -0.00011   0.00054   0.00043   1.03127
   D19       -3.14158  -0.00000  -0.00000  -0.00003  -0.00003   3.14158
   D20        2.11077  -0.00005   0.00011  -0.00054  -0.00043   2.11033
   D21       -2.11076   0.00005  -0.00011   0.00059   0.00048  -2.11029
   D22        0.00000   0.00000   0.00000   0.00002   0.00002   0.00002
         Item               Value     Threshold  Converged?
 Maximum Force            0.001495     0.000450     NO 
 RMS     Force            0.000403     0.000300     NO 
 Maximum Displacement     0.012921     0.001800     NO 
 RMS     Displacement     0.003722     0.001200     NO 
 Predicted change in Energy=-9.524001D-06
 GradGradGradGradGradGradGradGradGradGradGradGradGradGradGradGradGradGrad

                          Input orientation:                          
 ---------------------------------------------------------------------
 Center     Atomic      Atomic             Coordinates (Angstroms)
 Number     Number       Type             X           Y           Z
 ---------------------------------------------------------------------
      1          6           0        2.521586    0.278620    0.000235
      2          9           0        3.226266   -0.060502   -1.080336
      3          9           0        3.226009   -0.060337    1.081026
      4          9           0        2.359531    1.602651    0.000115
      5          6           0        1.178584   -0.439193    0.000129
      6          6           0       -0.008484    0.225808   -0.000066
      7          6           0       -1.223138   -0.547458   -0.000157
      8          8           0       -1.264633   -1.776661   -0.000093
      9          6           0       -2.549526    0.248317   -0.000398
     10          9           0       -2.604327    1.036844    1.081718
     11          9           0       -2.604034    1.036676   -1.082652
     12          9           0       -3.599759   -0.554131   -0.000478
     13          1           0       -0.034147    1.304243   -0.000151
     14          8           0        1.311242   -1.746609    0.000250
     15          1           0        0.386850   -2.121270    0.000173
 ---------------------------------------------------------------------
                    Distance matrix (angstroms):
                    1          2          3          4          5
     1  C    0.000000
     2  F    1.333871   0.000000
     3  F    1.333871   2.161362   0.000000
     4  F    1.333911   2.164412   2.164412   0.000000
     5  C    1.522797   2.346021   2.346021   2.358763   0.000000
     6  C    2.530621   3.422363   3.422365   2.739196   1.360646
     7  C    3.834757   4.604467   4.604471   4.178335   2.404161
     8  O    4.308090   4.927505   4.927520   4.955231   2.785342
     9  C    5.071202   5.883996   5.884007   5.092451   3.790973
    10  F    5.293344   6.314623   5.932674   5.111740   4.202254
    11  F    5.293323   5.932639   6.314613   5.111721   4.202238
    12  F    6.177730   6.928520   6.928534   6.337574   4.779726
    13  H    2.753847   3.695892   3.695894   2.412207   2.123743
    14  O    2.359340   2.770910   2.770906   3.509480   1.314129
    15  H    3.211942   3.671042   3.671036   4.214150   1.859093
                    6          7          8          9         10
     6  C    0.000000
     7  C    1.439904   0.000000
     8  O    2.363851   1.229903   0.000000
     9  C    2.541141   1.546791   2.398226   0.000000
    10  F    2.926847   2.363926   3.298622   1.340057   0.000000
    11  F    2.926837   2.363926   3.298605   1.340057   2.164370
    12  F    3.674991   2.376630   2.635791   1.321709   2.166387
    13  H    1.078740   2.200567   3.317539   2.728023   2.801387
    14  O    2.373206   2.803756   2.576051   4.345718   4.924314
    15  H    2.380140   2.251433   1.687055   3.773228   4.482250
                   11         12         13         14         15
    11  F    0.000000
    12  F    2.166388   0.000000
    13  H    2.801379   4.020839   0.000000
    14  O    4.924301   5.053706   3.334332   0.000000
    15  H    4.482245   4.283571   3.451287   0.997433   0.000000
 Stoichiometry    C5H2F6O2
 Framework group  C1[X(C5H2F6O2)]
 Deg. of freedom    39
 Full point group                 C1      NOp   1
 Largest Abelian subgroup         C1      NOp   1
 Largest concise Abelian subgroup C1      NOp   1
                         Standard orientation:                         
 ---------------------------------------------------------------------
 Center     Atomic      Atomic             Coordinates (Angstroms)
 Number     Number       Type             X           Y           Z
 ---------------------------------------------------------------------
      1          6           0        2.518906   -0.311947   -0.000291
      2          9           0        3.223591    0.027165    1.080280
      3          9           0        3.223334    0.027001   -1.081082
      4          9           0        2.356833   -1.635976   -0.000171
      5          6           0        1.175915    0.405884   -0.000186
      6          6           0       -0.011163   -0.259100    0.000010
      7          6           0       -1.225806    0.514182    0.000100
      8          8           0       -1.267284    1.743386    0.000037
      9          6           0       -2.552205   -0.281574    0.000342
     10          9           0       -2.607017   -1.070100   -1.081774
     11          9           0       -2.606724   -1.069932    1.082596
     12          9           0       -3.602427    0.520888    0.000422
     13          1           0       -0.036840   -1.337535    0.000094
     14          8           0        1.308591    1.713299   -0.000306
     15          1           0        0.384204    2.087973   -0.000229
 ---------------------------------------------------------------------
 Rotational constants (GHZ):           1.6949375           0.3782367           0.3469662
 Standard basis: GTBas3 (6D, 7F)
 There are   413 symmetry adapted cartesian basis functions of A   symmetry.
 There are   374 symmetry adapted basis functions of A   symmetry.
   374 basis functions,   586 primitive gaussians,   413 cartesian basis functions
    51 alpha electrons       51 beta electrons
       nuclear repulsion energy       884.6904760680 Hartrees.
 NAtoms=   15 NActive=   15 NUniq=   15 SFac= 1.00D+00 NAtFMM=   60 NAOKFM=F Big=F
 Integral buffers will be    131072 words long.
 Raffenetti 2 integral format.
 Two-electron integral symmetry is turned on.
 One-electron integrals computed using PRISM.
 NBasis=   374 RedAO= T EigKep=  3.12D-04  NBF=   374
 NBsUse=   374 1.00D-06 EigRej= -1.00D+00 NBFU=   374
 Initial guess from the checkpoint file:  "/home/artemiy/opt/gaussian/scr/Gau-11321.chk"
 B after Tr=     0.000000   -0.000000   -0.000000
         Rot=    1.000000   -0.000001   -0.000000    0.000004 Ang=  -0.00 deg.
 Requested convergence on RMS density matrix=1.00D-08 within 128 cycles.
 Requested convergence on MAX density matrix=1.00D-06.
 Requested convergence on             energy=1.00D-06.
 No special actions if energy rises.
 SCF Done:  E(RB3LYP) =  -941.274131190     A.U. after    9 cycles
            NFock=  9  Conv=0.26D-08     -V/T= 2.0058
 Calling FoFJK, ICntrl=      2127 FMM=F ISym2X=0 I1Cent= 0 IOpClX= 0 NMat=1 NMatS=1 NMatT=0.
 ***** Axes restored to original set *****
 -------------------------------------------------------------------
 Center     Atomic                   Forces (Hartrees/Bohr)
 Number     Number              X              Y              Z
 -------------------------------------------------------------------
      1        6          -0.000016943    0.000022129   -0.000000244
      2        9           0.000062918   -0.000158398   -0.000214678
      3        9           0.000062849   -0.000158388    0.000214814
      4        9          -0.000161819    0.000308503   -0.000000047
      5        6          -0.000341088   -0.000037430    0.000000282
      6        6           0.000118636   -0.000334429    0.000001372
      7        6           0.000348837   -0.000132723   -0.000004461
      8        8           0.000251101    0.000273075    0.000002291
      9        6           0.000081979   -0.000005471    0.000001055
     10        9           0.000065041    0.000147007    0.000245858
     11        9           0.000065317    0.000146466   -0.000245641
     12        9          -0.000232694   -0.000315012   -0.000000079
     13        1           0.000035335   -0.000031127    0.000000114
     14        8          -0.000444886    0.000120817    0.000000237
     15        1           0.000105417    0.000154982   -0.000000873
 -------------------------------------------------------------------
 Cartesian Forces:  Max     0.000444886 RMS     0.000174828

 GradGradGradGradGradGradGradGradGradGradGradGradGradGradGradGradGradGrad
 Berny optimization.
 Using GEDIIS/GDIIS optimizer.
 FormGI is forming the generalized inverse of G from B-inverse, IUseBI=4.
 Internal  Forces:  Max     0.000846410 RMS     0.000255590
 Search for a local minimum.
 Step number   4 out of a maximum of   68
 All quantities printed in internal units (Hartrees-Bohrs-Radians)
 Mixed Optimization -- En-DIIS/RFO-DIIS
 Swapping is turned off.
 Update second derivatives using D2CorX and points    1    2    3    4
 DE= -5.35D-06 DEPred=-9.52D-06 R= 5.62D-01
 TightC=F SS=  1.41D+00  RLast= 7.00D-03 DXNew= 5.0454D-01 2.1009D-02
 Trust test= 5.62D-01 RLast= 7.00D-03 DXMaxT set to 3.00D-01
 ITU=  1  1  1  0
     Eigenvalues ---    0.00230   0.00442   0.00811   0.01587   0.01683
     Eigenvalues ---    0.02118   0.02655   0.02853   0.10705   0.10919
     Eigenvalues ---    0.10963   0.11153   0.15996   0.16361   0.22776
     Eigenvalues ---    0.24601   0.25000   0.25000   0.25000   0.25000
     Eigenvalues ---    0.25000   0.25000   0.25003   0.27428   0.28259
     Eigenvalues ---    0.33967   0.36786   0.37740   0.40285   0.48866
     Eigenvalues ---    0.55057   0.56139   0.57420   0.57656   0.57737
     Eigenvalues ---    0.60838   0.68521   0.76423   0.89583
 En-DIIS/RFO-DIIS/Sim-DIIS IScMMF=       -3 using points:     4    3    2
 RFO step:  Lambda=-5.65687116D-06.
 DidBck=F Rises=F RFO-DIIS coefs:    0.78476    0.16637    0.04887
 Iteration  1 RMS(Cart)=  0.00218953 RMS(Int)=  0.00000146
 Iteration  2 RMS(Cart)=  0.00000201 RMS(Int)=  0.00000005
 Iteration  3 RMS(Cart)=  0.00000000 RMS(Int)=  0.00000005
 Variable       Old X    -DE/DX   Delta X   Delta X   Delta X     New X
                                 (Linear)    (Quad)   (Total)
    R1        2.52065   0.00025   0.00007   0.00028   0.00035   2.52100
    R2        2.52065   0.00025   0.00007   0.00028   0.00035   2.52100
    R3        2.52073   0.00033   0.00007   0.00033   0.00041   2.52113
    R4        2.87767  -0.00004  -0.00035   0.00048   0.00013   2.87780
    R5        2.57125  -0.00076  -0.00027  -0.00044  -0.00070   2.57054
    R6        2.48334  -0.00031   0.00007  -0.00059  -0.00052   2.48282
    R7        2.72102  -0.00055  -0.00001  -0.00076  -0.00076   2.72026
    R8        2.03852  -0.00003   0.00013  -0.00034  -0.00021   2.03832
    R9        2.32418  -0.00028  -0.00025   0.00013  -0.00011   2.32407
   R10        2.92301   0.00000  -0.00013   0.00026   0.00014   2.92315
   R11        2.53234   0.00028   0.00013   0.00023   0.00036   2.53270
   R12        2.53234   0.00028   0.00013   0.00023   0.00036   2.53270
   R13        2.49767   0.00038   0.00001   0.00046   0.00047   2.49814
   R14        1.88487  -0.00016  -0.00054   0.00061   0.00007   1.88495
    A1        1.88893   0.00011  -0.00003   0.00027   0.00025   1.88918
    A2        1.89280   0.00016   0.00022   0.00008   0.00030   1.89310
[...]
    14  O   -0.010724  -0.031411   0.001281   0.000192   0.000192   0.000263
    15  H   -0.000781   0.039966   0.000739  -0.000096  -0.000095  -0.000309
              13         14         15
     1  C   -0.001630  -0.052189   0.004445
     2  F   -0.000048   0.001248  -0.000456
     3  F   -0.000048   0.001248  -0.000456
     4  F   -0.001052   0.003862  -0.000391
     5  C   -0.013162   0.394259  -0.021172
     6  C    0.391363  -0.076086  -0.011491
     7  C   -0.018519  -0.010724  -0.000781
     8  O    0.003903  -0.031411   0.039966
     9  C    0.003640   0.001281   0.000739
    10  F   -0.000691   0.000192  -0.000096
    11  F   -0.000692   0.000192  -0.000095
    12  F    0.000016   0.000263  -0.000309
    13  H    0.390001   0.003430   0.000386
    14  O    0.003430   8.018675   0.301196
    15  H    0.000386   0.301196   0.237970
 Mulliken charges:
               1
     1  C    0.730605
     2  F   -0.263869
     3  F   -0.263869
     4  F   -0.291035
     5  C    0.424828
     6  C   -0.345396
     7  C    0.535178
     8  O   -0.554775
     9  C    0.662492
    10  F   -0.258014
    11  F   -0.258018
    12  F   -0.256337
    13  H    0.243103
    14  O   -0.555436
    15  H    0.450544
 Sum of Mulliken charges =  -0.00000
 Mulliken charges with hydrogens summed into heavy atoms:
               1
     1  C    0.730605
     2  F   -0.263869
     3  F   -0.263869
     4  F   -0.291035
     5  C    0.424828
     6  C   -0.102292
     7  C    0.535178
     8  O   -0.554775
     9  C    0.662492
    10  F   -0.258014
    11  F   -0.258018
    12  F   -0.256337
    14  O   -0.104892
 Electronic spatial extent (au):  <R**2>=           2823.7937
 Charge=             -0.0000 electrons
 Dipole moment (field-independent basis, Debye):
    X=              0.0938    Y=             -0.9365    Z=              0.0002  Tot=              0.9412
 Quadrupole moment (field-independent basis, Debye-Ang):
   XX=            -79.3970   YY=            -72.6302   ZZ=            -70.5053
   XY=              0.6847   XZ=              0.0010   YZ=              0.0003
 Traceless Quadrupole moment (field-independent basis, Debye-Ang):
   XX=             -5.2195   YY=              1.5473   ZZ=              3.6722
   XY=              0.6847   XZ=              0.0010   YZ=              0.0003
 Octapole moment (field-independent basis, Debye-Ang**2):
  XXX=              0.2247  YYY=            -13.0105  ZZZ=              0.0005  XYY=              3.3152
  XXY=            -10.1569  XXZ=              0.0002  XZZ=             -1.5481  YZZ=             -1.2515
  YYZ=              0.0008  XYZ=              0.0005
 Hexadecapole moment (field-independent basis, Debye-Ang**3):
 XXXX=          -2327.6634 YYYY=           -441.1067 ZZZZ=           -190.8637 XXXY=              2.9186
 XXXZ=              0.1355 YYYX=             11.0220 YYYZ=              0.0084 ZZZX=              0.1380
 ZZZY=              0.0123 XXYY=           -475.5265 XXZZ=           -420.1391 YYZZ=           -107.0663
 XXYZ=              0.0030 YYXZ=              0.0449 ZZXY=             -5.7518
 N-N= 8.847570689771D+02 E-N=-3.995934845621D+03  KE= 9.364923223581D+02
 1\1\GINC-ARTEMIY-VIRTUALBOX\SP\RHF\GFHFB2\C5H2F6O2\ARTEMIY\27-Nov-2021
 \0\\#N Geom=AllCheck Guess=TCheck SCRF=Check HF/GFHFB2 SCF=Tight\\Titl
 e Card Required\\0,1\C,0,2.5221329166,0.2780561476,0.0002507017\F,0,3.
 2262915163,-0.0621119034,-1.0805592635\F,0,3.2260048598,-0.0619605972,
 1.0812947014\F,0,2.3611400799,1.6024328545,0.0001366294\C,0,1.17824838
 79,-0.4382502892,0.0001225313\C,0,-0.0080924068,0.2272858443,-0.000085
 7969\C,0,-1.2218414718,-0.5466475289,-0.0001855527\O,0,-1.261689256,-1
 .7758461723,-0.000054625\C,0,-2.5494040893,0.2473072119,-0.000397385\F
 ,0,-2.605156429,1.0357396184,1.081973279\F,0,-2.6049382924,1.035522897
 5,-1.0829369142\F,0,-3.5985352942,-0.5569889635,-0.0004229391\H,0,-0.0
 336615405,1.3056130915,-0.0001707664\O,0,1.3085339004,-1.7456284147,0.
 000230131\H,0,0.3829861191,-2.1175257963,0.000121269\\Version=ES64L-G1
 6RevA.03\State=1-A\HF=-937.305312\RMSD=6.567e-09\Dipole=0.0368613,0.36
 84635,-0.0000649\Quadrupole=-3.8804805,1.1502955,2.7301849,-0.5096064,
 -0.0007292,0.000205\PG=C01 [X(C5H2F6O2)]\\@


 WE ARE REACHING THE STAGE WHERE THE PROBLEMS WE MUST SOLVE ARE 
 GOING TO BECOME INSOLUBLE WITHOUT COMPUTERS.
 I DO NOT FEAR COMPUTERS.  I FEAR THE LACK OF THEM.

                                   -- ISSAC ASIMOV
 Diagonal vibrational polarizability:
        0.0000000       0.0000000       0.0000000
    1 imaginary frequencies ignored.
 
 Temperature=              298.150000 Pressure=                      1.000000
 E(ZPE)=                     0.076363 E(Thermal)=                    0.087152
 E(QCISD(T))=             -938.945411 E(Empiric)=                   -0.263986
 E(CCSD(T))=                -0.263986 E(Empiric)=                   -0.073435
 DE(Plus)=                  -0.617678 DE(2DF)=                      -1.050131
 E(Delta-G3XP)=             -0.106916 DE(HF)=                     -940.981195
 G4(0 K)=                 -940.970406 G4 Energy=                  -940.969462
 G4 Enthalpy=             -941.019466 G4 Free Energy=    
 1\1\GINC-ARTEMIY-VIRTUALBOX\Mixed\G4\G4\C5H2F6O2\ARTEMIY\27-Nov-2021\0
 \\# g4 geom=gic\\Title Card Required\\0,1\C,0,2.5221329166,0.278056147
 6,0.0002507017\F,0,3.2262915163,-0.0621119034,-1.0805592635\F,0,3.2260
 048598,-0.0619605972,1.0812947014\F,0,2.3611400799,1.6024328545,0.0001
 366294\C,0,1.1782483879,-0.4382502892,0.0001225313\C,0,-0.0080924068,0
 .2272858443,-0.0000857969\C,0,-1.2218414718,-0.5466475289,-0.000185552
 7\O,0,-1.261689256,-1.7758461723,-0.000054625\C,0,-2.5494040893,0.2473
 072119,-0.000397385\F,0,-2.605156429,1.0357396184,1.081973279\F,0,-2.6
 049382924,1.0355228975,-1.0829369142\F,0,-3.5985352942,-0.5569889635,-
 0.0004229391\H,0,-0.0336615405,1.3056130915,-0.0001707664\O,0,1.308533
 9004,-1.7456284147,0.000230131\H,0,0.3829861191,-2.1175257963,0.000121
 269\\Version=ES64L-G16RevA.03\State=1-A\MP2/GTBas1=-938.8607053\MP4/GT
 Bas1=-938.9638748\CCSD(T)/G3Bas1=-938.9454106\MP2/GTBas2=-938.9279356\
 MP4/GTBas2=-939.0373102\MP2/GTBas3=-939.4414959\MP4/GTBas3=-939.581553
 \HF/GTLargeXP=-937.2027236\MP2/GTLargeXP=-940.5588574\HF/GFHFB1=-937.2
 875528\HF/GFHFB2=-937.305312\G4=-940.9811947\FreqCoord=4.766140462,0.5
 254499663,0.0004737575,6.0968073637,-0.1173744865,-2.0419610694,6.0962
 656615,-0.1170885593,2.0433508456,4.4619080928,3.028159228,0.000258192
 1,2.2265667599,-0.8281730207,0.0002315507,-0.0152924325,0.4295079977,-
 0.0001621327,-2.3089457493,-1.0330141163,-0.0003506438,-2.3842471482,-
 3.3558629051,-0.0001032264,-4.8176755096,0.4673428991,-0.0007509487,-4
 .9230321625,1.9572642151,2.0446331714,-4.9226199439,1.956854672,-2.046
 454178,-6.8002461557,-1.0525565953,-0.000799239,-0.0636110925,2.467251
 1676,-0.0003227017,2.4727706966,-3.2987596191,0.0004348846,0.723738874
 7,-4.0015438168,0.0002291652\PG=C01 [X(C5H2F6O2)]\NImag=1\\0.58539418,
 0.02174839,0.57237814,0.00000813,-0.00000115,0.51506300,-0.16000362,0.
 01781741,0.10222364,0.16609802,0.02138766,-0.08362108,-0.02977247,-0.0
 4932346,0.09868752,0.09929477,-0.02644251,-0.19579144,-0.14457604,0.06
 876187,0.29787109,-0.15995050,0.01779612,-0.10221693,0.02411663,-0.002
 01991,0.00863938,0.16602162,0.02136588,-0.08361328,0.02976246,-0.00202
 040,0.01418735,-0.00273232,-0.04928508,0.09866826,-0.09928858,0.026431
 60,-0.19585303,-0.00861037,0.00271804,-0.08407676,0.14454830,-0.068747
 16,0.29796732,-0.08310465,-0.00012445,-0.00000116,0.00029172,0.0384808
 8,0.01637754,0.00030011,0.03846610,-0.01638098,0.08534917,-0.00929368,
 -0.28336444,0.00001343,0.02669927,-0.03878628,-0.03432975,0.02668806,-
 0.03877487,0.03434129,-0.04038569,0.40600046,-0.00000053,0.00001465,-0
 .07392031,0.01523631,-0.04714469,-0.00700881,-0.01523812,0.04715936,-0
 .00702861,0.00000359,-0.00002818,0.07963596,-0.17866267,-0.05069696,-0
 .00001146,-0.02620990,-0.00583222,0.01832691,-0.02619449,-0.00583343,-
 0.01832946,0.00802320,0.01091465,-0.00000080,0.74603554,-0.05025844,-0
 .08485498,-0.00000509,0.01185613,0.00628928,-0.00994775,0.01184804,0.0
 0629006,0.00994812,-0.02625899,-0.04320820,0.00000008,-0.07887490,0.72
 110704,-0.00001169,-0.00000530,-0.06511465,0.03976985,0.00503958,-0.01
 360112,-0.03977491,-0.00504392,-0.01361720,0.00000190,0.00000499,0.007
 89224,0.00007998,-0.00004740,0.19688066,-0.00514763,0.01717954,-0.0000
 0351,-0.00620350,-0.00152179,0.00332513,-0.00620315,-0.00152226,-0.003
 32679,-0.00545654,-0.00306817,-0.00000045,-0.35454572,0.09305305,-0.00
 004648,0.67061670,-0.00563053,0.01605047,-0.00000123,-0.00543194,-0.00
 139844,0.00371653,-0.00543081,-0.00139901,-0.00371769,0.00003602,-0.00
 102942,0.00000005,0.13351004,-0.19031609,0.00002775,-0.07247460,0.7568
 3063,-0.00000158,0.00000186,0.01012750,-0.00146229,0.00009057,0.000672
 42,0.00146122,-0.00009068,0.00067243,-0.00000075,-0.00000032,-0.000402
 00,-0.00004984,0.00002243,-0.05976723,0.00008080,-0.00006116,0.0953241
 0,-0.01311642,0.00038766,-0.00000295,0.00263206,-0.00024753,-0.0005392
 1,0.00263127,-0.00024758,0.00053987,0.00284762,0.00169683,0.00000025,-
 0.05716994,0.01833242,-0.00000939,-0.21665407,-0.07031584,-0.00001420,
 0.56864043,-0.00722287,-0.00679588,0.00000047,0.00420402,0.00042713,-0
 .00225504,0.00420404,0.00042755,0.00225625,0.00024309,0.00147765,-0.00
 000006,-0.01600714,0.06355608,-0.00000644,-0.01997915,-0.14466768,0.00
 000190,0.02886702,0.88044415,-0.00000244,0.00000119,0.00962136,-0.0027
 9002,-0.00046689,0.00042728,0.00278989,0.00046685,0.00042769,0.0000003
 0,0.00000019,0.00016733,-0.00000594,-0.00000287,0.00407982,-0.00001688
 ,-0.00000361,-0.07201387,0.00003990,-0.00006293,0.21887155,0.00330206,
 0.00033422,0.00000059,-0.00066038,-0.00028648,0.00012095,-0.00066029,-
 0.00028646,-0.00012112,-0.00126783,-0.00139830,-0.00000007,-0.00395025
 ,0.01716751,-0.00000127,0.01853431,-0.04274180,0.00000428,-0.11710647,
 -0.02713963,-0.00000311,0.12614971,0.00816472,0.00098704,0.00000097,-0
 .00274165,0.00030329,0.00131796,-0.00274138,0.00030308,-0.00131877,-0.
 00148612,0.00048866,-0.00000027,0.02764302,-0.04320899,0.00000651,-0.0
 6477596,-0.04884062,-0.00000117,0.00496142,-0.63597784,0.00006104,0.03
 680725,0.73948060,-0.00000020,0.,-0.00048343,0.00010578,0.00006239,0.0
 0006674,-0.00010547,-0.00006252,0.00006694,0.00000004,-0.00000022,-0.0
 0022755,-0.00000280,0.00000525,-0.00236223,0.00000505,0.00000122,0.019
 27125,-0.00000542,0.00005952,-0.06620623,0.00000759,-0.00007063,0.0358
 9340,-0.00608742,-0.00183733,-0.00000062,0.00192249,0.00020698,-0.0008
 3463,0.00192243,0.00020708,0.00083526,0.00135221,0.00108264,0.00000013
 ,-0.00811584,0.00563372,-0.00000182,-0.00903195,0.00963828,-0.00000279
 ,-0.17129246,0.02875016,-0.00001423,0.01120632,0.00737852,-0.00000074,
 0.60357279,0.00161219,0.00399845,-0.00000016,-0.00119026,-0.00057870,0
 .00061426,-0.00119024,-0.00057878,-0.00061461,-0.00029103,-0.00152705,
 0.00000005,-0.00390684,-0.00627463,0.00000009,-0.01892056,0.01562553,-
 0.00000273,0.03852214,-0.07253403,0.00000428,0.02459093,-0.04284799,0.
 00000848,0.00808184,0.55972061,-0.00000077,-0.00000060,-0.00117989,0.0
 0088228,-0.00003849,-0.00065958,-0.00088143,0.00003852,-0.00065950,0.0
 0000023,0.00000021,-0.00017419,-0.00000114,0.00000133,0.00262536,-0.00
 000143,0.00000098,0.01233500,-0.00001300,0.00000181,-0.06909798,-0.000
 00322,0.00000740,0.01417349,0.00001164,-0.00000618,0.48845315,0.001921
 23,0.00075651,0.00057620,-0.00077189,-0.00009324,0.00029106,-0.0004749
 8,-0.00007435,-0.00023188,-0.00038986,-0.00044593,-0.00001792,0.002482
 00,-0.00223710,0.00015358,-0.00441711,-0.00091634,-0.00165918,0.009288
 48,0.01891903,0.02306891,-0.00527742,0.00438246,-0.00176334,-0.0874171
 6,0.02337988,0.03106293,0.07101335,-0.00120919,-0.00135741,-0.00102383
 ,0.00064091,0.00022912,-0.00013378,0.00035385,0.00017899,0.00027156,0.
 00024124,0.00073652,0.00011833,-0.00065913,0.00209322,0.00110235,0.004
 86565,-0.00158563,0.00327619,-0.00376977,-0.01355247,-0.03044706,0.006
 43751,-0.00366338,0.00268815,0.02788490,-0.15550860,-0.10041790,-0.003
 80147,0.18502670,-0.00070206,-0.00070762,-0.00089001,0.00029672,0.0001
 4115,0.00007413,0.00031590,0.00007096,0.00033409,0.00016359,0.00038878
 ,0.00014991,-0.00023691,0.00076923,0.00040442,0.00241832,0.00000286,0.
 00226872,-0.00473697,-0.01426215,-0.01337900,0.00620553,-0.00490550,0.
 00086515,0.02903627,-0.09658754,-0.18801378,-0.01390290,0.15369285,0.2
 8809039,0.00192119,0.00075629,-0.00057560,-0.00047497,-0.00007430,0.00
 023168,-0.00077174,-0.00009325,-0.00029126,-0.00038982,-0.00044584,0.0
 0001784,0.00248183,-0.00223699,-0.00015260,-0.00441665,-0.00091608,0.0
 0165812,0.00929289,0.01891135,-0.02306811,-0.00527678,0.00438220,0.001
 76112,-0.08740517,0.02335497,-0.03104784,0.01497126,-0.00405353,0.0028
 7467,0.07100675,-0.00120936,-0.00135710,0.00102352,0.00035388,0.000178
 93,-0.00027145,0.00064083,0.00022911,0.00013394,0.00024125,0.00073641,
 -0.00011834,-0.00065868,0.00209292,-0.00110273,0.00486622,-0.00158619,
 -0.00327423,-0.00377515,-0.01354316,0.03044623,0.00643693,-0.00366347,
 -0.00268583,0.02785934,-0.15546989,0.10041742,-0.00405249,0.02496334,-
 0.00812204,-0.00376819,0.18496608,0.00070303,0.00070788,-0.00089024,-0
 .00031618,-0.00007095,0.00033413,-0.00029706,-0.00014119,0.00007396,-0
 .00016378,-0.00038897,0.00014995,0.00023747,-0.00077018,0.00040475,-0.
 00242095,-0.00000242,0.00226901,0.00474208,0.01426616,-0.01339135,-0.0
 0620805,0.00490754,0.00086364,-0.02902175,0.09658624,-0.18806529,-0.00
 285425,0.00809970,-0.08239138,0.01386025,-0.15367382,0.28815773,0.0026
 1126,0.00164626,0.00000026,-0.00122973,-0.00014816,0.00068351,-0.00122
 956,-0.00014825,-0.00068384,-0.00055630,-0.00040040,-0.00000005,-0.000
 43460,-0.00602693,0.00000034,-0.00820675,0.00863123,-0.00000171,-0.041
 01656,-0.03656559,-0.00000142,0.00502907,0.00154010,0.00000037,-0.2525
 2606,-0.09236275,-0.00000846,-0.00010684,-0.02720210,-0.02160713,-0.00
 011785,-0.02720531,0.02161396,0.29758590,0.00026123,-0.00044400,0.0000
 0006,-0.00008944,0.00008840,0.00006440,-0.00008942,0.00008839,-0.00006
 443,-0.00006001,0.00026077,-0.00000002,0.00071827,-0.00085947,0.000000
 14,0.00010830,0.00003706,0.00000005,0.00259657,-0.00269756,0.00000147,
 0.00580729,0.00548894,-0.00000017,-0.10897519,-0.14154545,-0.00000424,
 -0.03817776,-0.03796851,-0.03082999,-0.03817735,-0.03795504,0.03082861
 ,0.17597226,0.21392032,0.00000026,0.00000019,-0.00008851,-0.00004955,0
 .00001394,0.00007477,0.00004930,-0.00001397,0.00007466,-0.00000006,-0.
 00000006,0.00003572,-0.00000006,-0.00000051,-0.00019108,-0.00000081,0.
 00000081,0.00021460,-0.00000538,-0.00000229,0.00899243,0.,-0.00000056,
 -0.00090560,-0.00000697,-0.00000268,-0.07450456,-0.03369787,-0.0367225
 0,-0.00646166,0.03370683,0.03672333,-0.00646407,0.00000425,0.00000426,
 0.07968454,0.00001778,0.00367088,0.00000022,0.00032371,-0.00055661,-0.
 00044344,0.00032395,-0.00055653,0.00044373,-0.00169398,-0.00267369,0.0
 0000005,0.00574892,0.02895214,-0.00000112,-0.05586016,0.00609978,-0.00
 000503,0.00906815,-0.02525018,0.00000358,-0.00599654,-0.00437090,-0.00
 000096,-0.00039255,-0.00240162,-0.00000010,-0.00040943,0.00096072,0.00
 055844,-0.00040922,0.00096025,-0.00055831,0.00069837,0.00058524,0.0000
 0007,0.05590204,0.00029354,-0.00142594,-0.00000010,-0.00005048,0.00011
 332,0.00011029,-0.00005062,0.00011329,-0.00011039,-0.00309626,0.000428
 04,-0.00000050,-0.00089995,-0.01172013,0.00000063,0.00832954,-0.355187
 04,0.00002605,0.00403776,-0.00964676,0.00000104,-0.00205282,0.00018661
 ,0.00000007,-0.00072504,-0.00135514,0.00000015,0.00073024,0.00050105,0
 .00011572,0.00073012,0.00050111,-0.00011579,0.00016303,0.00031598,-0.0
 0000004,-0.00785793,0.37439110,0.00000055,0.00000040,-0.00343247,0.001
 18385,0.00006160,-0.00040757,-0.00118369,-0.00006183,-0.00040775,0.,-0
 .00000042,-0.00052846,0.00000140,0.00000422,-0.00257256,-0.00000529,0.
 00002577,-0.02498702,0.00000151,-0.00000295,-0.00406174,-0.00000116,-0
 .00000009,0.00540867,-0.00000018,0.00000002,0.00185082,-0.00030727,-0.
 00088980,-0.00100525,0.00030725,0.00088979,-0.00100545,0.00000010,0.,-
 0.00033015,0.00000525,-0.00002770,0.02218111,0.00781724,-0.03164080,0.
 00000364,0.00067484,-0.00039694,-0.00114678,0.00067441,-0.00039661,0.0
 0114654,-0.00616201,-0.01182291,-0.00000018,-0.12884133,0.02111888,-0.
 00001145,0.01501656,0.04223675,-0.00000354,-0.00770499,-0.02008159,0.0
 0000177,-0.03947616,0.01939327,-0.00000638,0.00328715,-0.00012175,0.00
 000048,-0.00116680,0.00133490,0.00109319,-0.00116662,0.00133461,-0.001
 09367,0.00003743,0.00059121,-0.00000007,-0.00525231,0.00105034,-0.0000
 0205,0.47982902,-0.00287089,-0.04115903,0.00000208,-0.00111139,0.00311
 403,0.00158690,-0.00111097,0.00311373,-0.00158739,-0.00500738,-0.00208
 790,-0.00000042,0.03639753,-0.38067294,0.00002743,0.05597177,-0.043548
 99,0.00001178,-0.03336082,-0.04313233,-0.00000068,-0.01585549,0.041088
 48,-0.00000480,-0.00598623,-0.00011505,-0.00000092,0.00185514,-0.00017
 325,0.00027485,0.00185509,-0.00017330,-0.00027426,0.00296712,0.0012737
 6,0.00000019,0.00330168,0.00248323,0.00000119,0.06054835,0.54420377,0.
 00000164,-0.00000166,-0.00208773,-0.00078621,0.00036880,0.00183397,0.0
 0078604,-0.00036902,0.00183473,-0.00000071,-0.00000142,0.00142403,-0.0
 0001238,0.00002481,-0.05796643,-0.00000411,0.00000990,0.01740449,0.000
 00187,-0.00000029,-0.00536702,-0.00000443,0.00000033,0.00505387,0.0000
 0089,-0.00000004,-0.00016597,-0.00033046,-0.00010299,0.00001658,0.0003
 2985,0.00010334,0.00001641,-0.00000020,0.,0.00003482,-0.00000230,0.000
 00070,0.01020328,0.00005671,-0.00002447,0.05268886,0.00308797,0.002206
 25,-0.00000045,-0.00050550,0.00042512,0.00024918,-0.00050573,0.0004251
 3,-0.00024940,0.00085695,0.00285316,-0.00000006,0.01935325,-0.04206854
 ,0.00000510,-0.02802434,0.00370583,-0.00000351,0.01966001,0.04814746,-
 0.00000219,0.01545066,-0.03853697,0.00000535,-0.00099479,0.00084310,-0
 .00000018,0.00075518,-0.00202450,-0.00177666,0.00075490,-0.00202415,0.
 00177719,-0.00053778,-0.00107120,0.00000006,-0.00206871,-0.00060147,-0
 .00000027,-0.31756643,-0.09759352,-0.00003620,0.29028436,0.00286134,-0
 .00542097,0.00000101,0.00038738,0.00076613,-0.00005962,0.00038749,0.00
 076612,0.00005964,-0.00099865,-0.00135036,-0.00000003,-0.04581426,-0.0
 4031316,-0.00000367,-0.00211157,0.00101543,-0.00000053,0.01231487,-0.0
 0378484,0.00000177,-0.00782064,-0.01012442,-0.00000093,0.00080031,-0.0
 0100926,0.00000051,-0.00022458,0.00008031,-0.00004156,-0.00022450,0.00
 008024,0.00004146,-0.00086053,-0.00000360,-0.00000011,-0.00086324,0.00
 030129,-0.00000020,-0.08314772,-0.08421423,-0.00000798,0.12531430,0.14
 321132,-0.00000051,0.00000106,0.00491986,-0.00110777,0.00023555,0.0001
 9074,0.00110759,-0.00023554,0.00019103,0.00000022,0.00000047,-0.000165
 22,0.00000505,-0.00000167,0.00290525,-0.00000259,0.00000024,-0.0033894
 0,0.00000105,0.00000605,0.00092972,0.00000348,-0.00000474,-0.01147811,
 -0.00000045,0.00000053,0.00308292,-0.00038763,0.00048872,-0.00006230,0
 .00038779,-0.00048912,-0.00006181,0.00000002,-0.00000013,-0.00016591,-
 0.00000009,-0.00000014,-0.00090546,-0.00003820,-0.00001151,-0.02492389
 ,0.00003203,0.00001023,0.02893258\\0.00006422,0.00000612,-0.00000013,-
 0.00000901,0.00004484,0.00001523,-0.00000915,0.00004488,-0.00001536,0.
 00004361,-0.00010143,0.00000002,-0.00013837,0.00023168,0.00000059,0.00
 017153,0.00001771,0.00000209,-0.00014929,-0.00022097,-0.00000719,0.000
 03022,0.00006694,0.00000384,-0.00004232,0.00003376,0.00000162,-0.00003
 171,-0.00004864,-0.00003642,-0.00003143,-0.00004933,0.00003676,0.00006
 928,0.00011787,-0.00000013,0.00000113,-0.00003494,0.00000016,-0.000129
 82,-0.00024754,0.00000058,0.00016111,0.00013904,-0.00000166\\\@
 Job cpu time:       0 days 17 hours 27 minutes 22.4 seconds.
 Elapsed time:       0 days  2 hours 29 minutes 41.0 seconds.
 File lengths (MBytes):  RWF= 134769 Int=      0 D2E=      0 Chk=    119 Scr=      1
 Normal termination of Gaussian 16 at Sat Nov 27 10:30:55 2021.
