 Entering Gaussian System, Link 0=/home/artemiy/opt/gaussian/g16/g16
 Input=1,1,1,5,5,5-Hexafluoro-2,4-pentanedione_enol_G4_new.gjf
 Output=1,1,1,5,5,5-Hexafluoro-2,4-pentanedione_enol_G4_new.log
 Initial command:
 /home/artemiy/opt/gaussian/g16/l1.exe "/home/artemiy/opt/gaussian/scr/Gau-1862.inp" -scrdir="/home/artemiy/opt/gaussian/scr/"
 Entering Link 1 = /home/artemiy/opt/gaussian/g16/l1.exe PID=      1864.
  
 Copyright (c) 1988,1990,1992,1993,1995,1998,2003,2009,2016,
            Gaussian, Inc.  All Rights Reserved.
  
 This is part of the Gaussian(R) 16 program.  It is based on
 the Gaussian(R) 09 system (copyright 2009, Gaussian, Inc.),
 the Gaussian(R) 03 system (copyright 2003, Gaussian, Inc.),
 the Gaussian(R) 98 system (copyright 1998, Gaussian, Inc.),
 the Gaussian(R) 94 system (copyright 1995, Gaussian, Inc.),
 the Gaussian 92(TM) system (copyright 1992, Gaussian, Inc.),
 the Gaussian 90(TM) system (copyright 1990, Gaussian, Inc.),
 the Gaussian 88(TM) system (copyright 1988, Gaussian, Inc.),
 the Gaussian 86(TM) system (copyright 1986, Carnegie Mellon
 University), and the Gaussian 82(TM) system (copyright 1983,
 Carnegie Mellon University). Gaussian is a federally registered
 trademark of Gaussian, Inc.
  
 This software contains proprietary and confidential information,
 including trade secrets, belonging to Gaussian, Inc.
  
 This software is provided under written license and may be
 used, copied, transmitted, or stored only in accord with that
 written license.
  
 The following legend is applicable only to US Government
 contracts under FAR:
  
                    RESTRICTED RIGHTS LEGEND
  
 Use, reproduction and disclosure by the US Government is
 subject to restrictions as set forth in subparagraphs (a)
 and (c) of the Commercial Computer Software - Restricted
 Rights clause in FAR 52.227-19.
  
 Gaussian, Inc.
 340 Quinnipiac St., Bldg. 40, Wallingford CT 06492
  
  
 ---------------------------------------------------------------
 Warning -- This program may not be used in any manner that
 competes with the business of Gaussian, Inc. or will provide
 assistance to any competitor of Gaussian, Inc.  The licensee
 of this program is prohibited from giving any competitor of
 Gaussian, Inc. access to this program.  By using this program,
 the user acknowledges that Gaussian, Inc. is engaged in the
 business of creating and licensing software in the field of
 computational chemistry and represents and warrants to the
 licensee that it is not a competitor of Gaussian, Inc. and that
 it will not use this program in any manner prohibited above.
 ---------------------------------------------------------------
  

 Cite this work as:
 Gaussian 16, Revision A.03,
 M. J. Frisch, G. W. Trucks, H. B. Schlegel, G. E. Scuseria, 
 M. A. Robb, J. R. Cheeseman, G. Scalmani, V. Barone, 
 G. A. Petersson, H. Nakatsuji, X. Li, M. Caricato, A. V. Marenich, 
 J. Bloino, B. G. Janesko, R. Gomperts, B. Mennucci, H. P. Hratchian, 
 J. V. Ortiz, A. F. Izmaylov, J. L. Sonnenberg, D. Williams-Young, 
 F. Ding, F. Lipparini, F. Egidi, J. Goings, B. Peng, A. Petrone, 
 T. Henderson, D. Ranasinghe, V. G. Zakrzewski, J. Gao, N. Rega, 
 G. Zheng, W. Liang, M. Hada, M. Ehara, K. Toyota, R. Fukuda, 
 J. Hasegawa, M. Ishida, T. Nakajima, Y. Honda, O. Kitao, H. Nakai, 
 T. Vreven, K. Throssell, J. A. Montgomery, Jr., J. E. Peralta, 
 F. Ogliaro, M. J. Bearpark, J. J. Heyd, E. N. Brothers, K. N. Kudin, 
 V. N. Staroverov, T. A. Keith, R. Kobayashi, J. Normand, 
 K. Raghavachari, A. P. Rendell, J. C. Burant, S. S. Iyengar, 
 J. Tomasi, M. Cossi, J. M. Millam, M. Klene, C. Adamo, R. Cammi, 
 J. W. Ochterski, R. L. Martin, K. Morokuma, O. Farkas, 
 J. B. Foresman, and D. J. Fox, Gaussian, Inc., Wallingford CT, 2016.
 
 ******************************************
 Gaussian 16:  ES64L-G16RevA.03 25-Dec-2016
                 1-Dec-2021 
 ******************************************
 %mem=47GB
 %nprocshared=7
 Will use up to    7 processors via shared memory.
 -------------
 # g4 geom=gic
 -------------
 1/18=20,19=15,26=3,38=1,145=2/1,3;
 2/9=110,12=2,17=6,18=5,40=1/2;
 3/5=35,7=104,11=2,25=1,30=1,71=1,74=-5/1,2,3;
 4//1;
 5/5=2,38=5/2;
 6/7=2,8=2,9=2,10=2,28=1/1;
 7//1,2,3,16;
 1/18=20,19=15,26=3,145=2/3(2);
 2/9=110/2;
 99//99;
 2/9=110/2;
 3/5=35,7=104,11=2,25=1,30=1,71=1,74=-5/1,2,3;
 4/5=5,16=3,69=1/1;
 5/5=2,38=5/2;
 7//1,2,3,16;
 1/18=20,19=15,26=3,145=2/3(-5);
 2/9=110/2;
 6/7=2,8=2,9=2,10=2,19=2,28=1/1;
 99/9=1/99;
 -------------------
 CAS 1522-22-1
 -------------------
 Symbolic Z-matrix:
 Charge =  0 Multiplicity = 1
 C                    -2.51907  -0.31156   0.06996 
 F                    -3.21318  -0.12079  -1.06074 
 F                    -3.23294   0.17848   1.10104 
 F                    -2.35815  -1.63609   0.24949 
 C                    -1.17528   0.40463  -0.01994 
 C                     0.01095  -0.26124   0.11982 
 C                     1.22451   0.5123   -0.01007 
 O                     1.26455   1.74159  -0.20075 
 C                     2.55212  -0.28131   0. 
 F                     2.4196   -1.40625   0.85492 
 F                     2.79589  -0.73323  -1.32003 
 F                     3.60102   0.5235    0.43563 
 H                     0.03618  -1.33963   0.30954 
 O                    -1.30533   1.71192  -0.23948 
 H                    -0.37958   2.08398  -0.27922 
 
 Initializing the GIC definitions file.

 GradGradGradGradGradGradGradGradGradGradGradGradGradGradGradGradGradGrad
 Berny optimization.
 Initialization pass.
                           ----------------------------
                           !    Initial Parameters    !
                           ! (Angstroms and Degrees)  !
 --------------------------                            --------------------------
 ! Name  Definition              Value          Derivative Info.                !
 --------------------------------------------------------------------------------
 ! R1    R(1,2)                  1.3404         estimate D2E/DX2                !
 ! R2    R(1,3)                  1.3464         estimate D2E/DX2                !
 ! R3    R(1,4)                  1.3463         estimate D2E/DX2                !
 ! R4    R(1,5)                  1.5254         estimate D2E/DX2                !
 ! R5    R(5,6)                  1.3675         estimate D2E/DX2                !
 ! R6    R(5,14)                 1.332          estimate D2E/DX2                !
 ! R7    R(6,7)                  1.445          estimate D2E/DX2                !
 ! R8    R(6,13)                 1.0952         estimate D2E/DX2                !
 ! R9    R(7,8)                  1.2446         estimate D2E/DX2                !
 ! R10   R(7,9)                  1.5468         estimate D2E/DX2                !
 ! R11   R(9,10)                 1.4191         estimate D2E/DX2                !
 ! R12   R(9,11)                 1.4164         estimate D2E/DX2                !
 ! R13   R(9,12)                 1.392          estimate D2E/DX2                !
 ! R14   R(14,15)                0.9985         estimate D2E/DX2                !
 ! A1    A(2,1,3)              108.6407         estimate D2E/DX2                !
 ! A2    A(2,1,4)              108.3258         estimate D2E/DX2                !
 ! A3    A(2,1,5)              109.8558         estimate D2E/DX2                !
 ! A4    A(3,1,4)              108.6221         estimate D2E/DX2                !
 ! A5    A(3,1,5)              109.9575         estimate D2E/DX2                !
 ! A6    A(4,1,5)              111.3755         estimate D2E/DX2                !
 ! A7    A(1,5,6)              121.9745         estimate D2E/DX2                !
 ! A8    A(1,5,14)             112.6136         estimate D2E/DX2                !
 ! A9    A(6,5,14)             125.4116         estimate D2E/DX2                !
 ! A10   A(5,6,7)              117.3014         estimate D2E/DX2                !
 ! A11   A(5,6,13)             121.1387         estimate D2E/DX2                !
 ! A12   A(7,6,13)             121.5552         estimate D2E/DX2                !
 ! A13   A(6,7,8)              124.7163         estimate D2E/DX2                !
 ! A14   A(6,7,9)              116.4617         estimate D2E/DX2                !
 ! A15   A(8,7,9)              118.6951         estimate D2E/DX2                !
 ! A16   A(7,9,10)             109.2985         estimate D2E/DX2                !
 ! A17   A(7,9,11)             107.7797         estimate D2E/DX2                !
 ! A18   A(7,9,12)             110.6185         estimate D2E/DX2                !
 ! A19   A(10,9,11)            108.9411         estimate D2E/DX2                !
 ! A20   A(10,9,12)            109.8857         estimate D2E/DX2                !
 ! A21   A(11,9,12)            110.2704         estimate D2E/DX2                !
 ! A22   A(5,14,15)            106.364          estimate D2E/DX2                !
 ! D1    D(2,1,5,6)           -122.1739         estimate D2E/DX2                !
 ! D2    D(2,1,5,14)            58.0158         estimate D2E/DX2                !
 ! D3    D(3,1,5,6)            118.3091         estimate D2E/DX2                !
 ! D4    D(3,1,5,14)           -61.5012         estimate D2E/DX2                !
 ! D5    D(4,1,5,6)             -2.152          estimate D2E/DX2                !
 ! D6    D(4,1,5,14)           178.0377         estimate D2E/DX2                !
 ! D7    D(1,5,6,7)            178.7985         estimate D2E/DX2                !
 ! D8    D(1,5,6,13)            -0.4281         estimate D2E/DX2                !
 ! D9    D(14,5,6,7)            -1.4164         estimate D2E/DX2                !
 ! D10   D(14,5,6,13)          179.357          estimate D2E/DX2                !
 ! D11   D(1,5,14,15)          179.8775         estimate D2E/DX2                !
 ! D12   D(6,5,14,15)            0.075          estimate D2E/DX2                !
 ! D13   D(5,6,7,8)              2.1696         estimate D2E/DX2                !
 ! D14   D(5,6,7,9)           -173.667          estimate D2E/DX2                !
 ! D15   D(13,6,7,8)          -178.6072         estimate D2E/DX2                !
 ! D16   D(13,6,7,9)             5.5561         estimate D2E/DX2                !
 ! D17   D(6,7,9,10)           -33.5461         estimate D2E/DX2                !
 ! D18   D(6,7,9,11)            84.713          estimate D2E/DX2                !
 ! D19   D(6,7,9,12)          -154.6645         estimate D2E/DX2                !
 ! D20   D(8,7,9,10)           150.3548         estimate D2E/DX2                !
 ! D21   D(8,7,9,11)           -91.386          estimate D2E/DX2                !
 ! D22   D(8,7,9,12)            29.2364         estimate D2E/DX2                !
 --------------------------------------------------------------------------------
 Trust Radius=3.00D-01 FncErr=1.00D-07 GrdErr=1.00D-06 EigMax=2.50D+02 EigMin=1.00D-04
 Number of steps in this run=     68 maximum allowed number of steps=    100.
 GradGradGradGradGradGradGradGradGradGradGradGradGradGradGradGradGradGrad

                          Input orientation:                          
 ---------------------------------------------------------------------
 Center     Atomic      Atomic             Coordinates (Angstroms)
 Number     Number       Type             X           Y           Z
 ---------------------------------------------------------------------
      1          6           0       -2.519074   -0.311563    0.069957
      2          9           0       -3.213179   -0.120789   -1.060738
      3          9           0       -3.232941    0.178481    1.101043
      4          9           0       -2.358147   -1.636088    0.249494
      5          6           0       -1.175278    0.404627   -0.019940
      6          6           0        0.010953   -0.261236    0.119819
      7          6           0        1.224513    0.512303   -0.010074
      8          8           0        1.264545    1.741593   -0.200746
      9          6           0        2.552124   -0.281314    0.000001
     10          9           0        2.419603   -1.406250    0.854920
     11          9           0        2.795893   -0.733230   -1.320028
     12          9           0        3.601024    0.523500    0.435633
     13          1           0        0.036179   -1.339628    0.309538
     14          8           0       -1.305333    1.711924   -0.239481
     15          1           0       -0.379580    2.083976   -0.279217
 ---------------------------------------------------------------------
                    Distance matrix (angstroms):
                    1          2          3          4          5
     1  C    0.000000
     2  F    1.340391   0.000000
     3  F    1.346435   2.182487   0.000000
     4  F    1.346290   2.178054   2.187021   0.000000
     5  C    1.525384   2.347842   2.354086   2.374088   0.000000
     6  C    2.531019   3.436345   3.417455   2.742201   1.367498
     7  C    3.834006   4.604108   4.605965   4.185500   2.402226
     8  O    4.313294   4.925248   4.936127   4.973464   2.787993
     9  C    5.071771   5.864269   5.906833   5.099845   3.790045
    10  F    5.119086   6.086903   5.875645   4.821438   4.119202
    11  F    5.509876   6.045764   6.560460   5.462845   4.330721
    12  F    6.187621   7.006254   6.874946   6.341150   4.799452
    13  H    2.764712   3.731160   3.690295   2.413357   2.149095
    14  O    2.379794   2.770050   2.804305   3.543543   1.331968
    15  H    3.230784   3.674377   3.698337   4.246544   1.876319
                    6          7          8          9         10
     6  C    0.000000
     7  C    1.444978   0.000000
     8  O    2.384445   1.244633   0.000000
     9  C    2.544073   1.546764   2.406307   0.000000
    10  F    2.766410   2.420186   3.515324   1.419130   0.000000
    11  F    3.170462   2.395113   3.118103   1.416378   2.307585
    12  F    3.688382   2.417971   2.710694   1.392010   2.301194
    13  H    1.095244   2.223497   3.356068   2.746966   2.445933
    14  O    2.398972   2.809242   2.570341   4.348600   4.979545
    15  H    2.410760   2.261793   1.681229   3.777228   4.615557
                   11         12         13         14         15
    11  F    0.000000
    12  F    2.304333   0.000000
    13  H    3.261783   4.024334   0.000000
    14  O    4.895550   5.093179   3.378320   0.000000
    15  H    4.370763   4.334894   3.498650   0.998509   0.000000
 Stoichiometry    C5H2F6O2
 Framework group  C1[X(C5H2F6O2)]
 Deg. of freedom    39
 Full point group                 C1      NOp   1
 Largest Abelian subgroup         C1      NOp   1
 Largest concise Abelian subgroup C1      NOp   1
                         Standard orientation:                         
 ---------------------------------------------------------------------
 Center     Atomic      Atomic             Coordinates (Angstroms)
 Number     Number       Type             X           Y           Z
 ---------------------------------------------------------------------
      1          6           0        2.520593   -0.307514    0.003327
      2          9           0        3.198663    0.033791    1.108035
      3          9           0        3.247291    0.045219   -1.073880
      4          9           0        2.365453   -1.644826   -0.001886
      5          6           0        1.173905    0.408508   -0.019930
      6          6           0       -0.008632   -0.275055   -0.086262
      7          6           0       -1.225788    0.503651   -0.075723
      8          8           0       -1.271502    1.747170   -0.049562
      9          6           0       -2.551148   -0.290037    0.001476
     10          9           0       -2.404114   -1.517385   -0.695610
     11          9           0       -2.811848   -0.564827    1.366267
     12          9           0       -3.595990    0.445739   -0.550456
     13          1           0       -0.028560   -1.369150   -0.132265
     14          8           0        1.297671    1.733890    0.026799
     15          1           0        0.370533    2.103959    0.004798
 ---------------------------------------------------------------------
 Rotational constants (GHZ):           1.6187460           0.3759059           0.3449978
 Standard basis: GTBas3 (6D, 7F)
 There are   413 symmetry adapted cartesian basis functions of A   symmetry.
 There are   374 symmetry adapted basis functions of A   symmetry.
   374 basis functions,   586 primitive gaussians,   413 cartesian basis functions
    51 alpha electrons       51 beta electrons
       nuclear repulsion energy       873.3396375293 Hartrees.
 NAtoms=   15 NActive=   15 NUniq=   15 SFac= 1.00D+00 NAtFMM=   60 NAOKFM=F Big=F
 Integral buffers will be    131072 words long.
 Raffenetti 2 integral format.
 Two-electron integral symmetry is turned on.
 One-electron integrals computed using PRISM.
 NBasis=   374 RedAO= T EigKep=  3.35D-04  NBF=   374
 NBsUse=   374 1.00D-06 EigRej= -1.00D+00 NBFU=   374
 ExpMin= 1.61D-01 ExpMax= 7.00D+03 ExpMxC= 1.05D+03 IAcc=3 IRadAn=         5 AccDes= 0.00D+00
 Harris functional with IExCor=  402 and IRadAn=       5 diagonalized for initial guess.
 HarFok:  IExCor=  402 AccDes= 0.00D+00 IRadAn=         5 IDoV= 1 UseB2=F ITyADJ=14
 ICtDFT=  3500011 ScaDFX=  1.000000  1.000000  1.000000  1.000000
 FoFCou: FMM=F IPFlag=           0 FMFlag=      100000 FMFlg1=           0
         NFxFlg=           0 DoJE=T BraDBF=F KetDBF=T FulRan=T
         wScrn=  0.000000 ICntrl=       500 IOpCl=  0 I1Cent=   200000004 NGrid=           0
         NMat0=    1 NMatS0=      1 NMatT0=    0 NMatD0=    1 NMtDS0=    0 NMtDT0=    0
 Petite list used in FoFCou.
 Requested convergence on RMS density matrix=1.00D-08 within 128 cycles.
 Requested convergence on MAX density matrix=1.00D-06.
 Requested convergence on             energy=1.00D-06.
 No special actions if energy rises.
 Integral accuracy reduced to 1.0D-05 until final iterations.
 Initial convergence to 1.0D-05 achieved.  Increase integral accuracy.
 SCF Done:  E(RB3LYP) =  -941.258568088     A.U. after   14 cycles
            NFock= 14  Conv=0.50D-08     -V/T= 2.0066

 **********************************************************************

            Population analysis using the SCF density.

 **********************************************************************

 Orbital symmetries:
       Occupied  (A) (A) (A) (A) (A) (A) (A) (A) (A) (A) (A) (A)
                 (A) (A) (A) (A) (A) (A) (A) (A) (A) (A) (A) (A)
                 (A) (A) (A) (A) (A) (A) (A) (A) (A) (A) (A) (A)
                 (A) (A) (A) (A) (A) (A) (A) (A) (A) (A) (A) (A)
                 (A) (A) (A)
       Virtual   (A) (A) (A) (A) (A) (A) (A) (A) (A) (A) (A) (A)
                 (A) (A) (A) (A) (A) (A) (A) (A) (A) (A) (A) (A)
                 (A) (A) (A) (A) (A) (A) (A) (A) (A) (A) (A) (A)
                 (A) (A) (A) (A) (A) (A) (A) (A) (A) (A) (A) (A)
                 (A) (A) (A) (A) (A) (A) (A) (A) (A) (A) (A) (A)
                 (A) (A) (A) (A) (A) (A) (A) (A) (A) (A) (A) (A)
                 (A) (A) (A) (A) (A) (A) (A) (A) (A) (A) (A) (A)
                 (A) (A) (A) (A) (A) (A) (A) (A) (A) (A) (A) (A)
                 (A) (A) (A) (A) (A) (A) (A) (A) (A) (A) (A) (A)
                 (A) (A) (A) (A) (A) (A) (A) (A) (A) (A) (A) (A)
                 (A) (A) (A) (A) (A) (A) (A) (A) (A) (A) (A) (A)
                 (A) (A) (A) (A) (A) (A) (A) (A) (A) (A) (A) (A)
                 (A) (A) (A) (A) (A) (A) (A) (A) (A) (A) (A) (A)
                 (A) (A) (A) (A) (A) (A) (A) (A) (A) (A) (A) (A)
                 (A) (A) (A) (A) (A) (A) (A) (A) (A) (A) (A) (A)
                 (A) (A) (A) (A) (A) (A) (A) (A) (A) (A) (A) (A)
                 (A) (A) (A) (A) (A) (A) (A) (A) (A) (A) (A) (A)
                 (A) (A) (A) (A) (A) (A) (A) (A) (A) (A) (A) (A)
                 (A) (A) (A) (A) (A) (A) (A) (A) (A) (A) (A) (A)
                 (A) (A) (A) (A) (A) (A) (A) (A) (A) (A) (A) (A)
                 (A) (A) (A) (A) (A) (A) (A) (A) (A) (A) (A) (A)
                 (A) (A) (A) (A) (A) (A) (A) (A) (A) (A) (A) (A)
                 (A) (A) (A) (A) (A) (A) (A) (A) (A) (A) (A) (A)
                 (A) (A) (A) (A) (A) (A) (A) (A) (A) (A) (A) (A)
                 (A) (A) (A) (A) (A) (A) (A) (A) (A) (A) (A) (A)
                 (A) (A) (A) (A) (A) (A) (A) (A) (A) (A) (A) (A)
                 (A) (A) (A) (A) (A) (A) (A) (A) (A) (A) (A)
 The electronic state is 1-A.
 Alpha  occ. eigenvalues --  -24.75130 -24.74638 -24.74589 -24.74547 -24.74499
 Alpha  occ. eigenvalues --  -24.74327 -19.22124 -19.18663 -10.45786 -10.45621
 Alpha  occ. eigenvalues --  -10.32677 -10.32178 -10.23217  -1.33128  -1.28950
 Alpha  occ. eigenvalues --   -1.24605  -1.24282  -1.22471  -1.22030  -1.11973
 Alpha  occ. eigenvalues --   -1.07793  -0.83978  -0.77774  -0.73863  -0.67307
 Alpha  occ. eigenvalues --   -0.64194  -0.61010  -0.60974  -0.59036  -0.58656
 Alpha  occ. eigenvalues --   -0.58522  -0.54454  -0.52558  -0.49481  -0.48754
 Alpha  occ. eigenvalues --   -0.47969  -0.47174  -0.46647  -0.46360  -0.45021
 Alpha  occ. eigenvalues --   -0.44903  -0.44025  -0.43334  -0.42788  -0.42628
 Alpha  occ. eigenvalues --   -0.42388  -0.42231  -0.40970  -0.40231  -0.30853
 Alpha  occ. eigenvalues --   -0.29201
 Alpha virt. eigenvalues --   -0.10987   0.00956   0.07016   0.08823   0.10887
 Alpha virt. eigenvalues --    0.11678   0.14538   0.14649   0.18214   0.18679
 Alpha virt. eigenvalues --    0.20030   0.21161   0.23990   0.27661   0.32211
 Alpha virt. eigenvalues --    0.34890   0.37270   0.37903   0.39056   0.40118
 Alpha virt. eigenvalues --    0.41063   0.41959   0.44071   0.47211   0.49375
 Alpha virt. eigenvalues --    0.50393   0.53378   0.53570   0.55533   0.56180
 Alpha virt. eigenvalues --    0.60906   0.61717   0.63214   0.63750   0.65241
 Alpha virt. eigenvalues --    0.67061   0.68672   0.71971   0.72321   0.73459
 Alpha virt. eigenvalues --    0.74554   0.80962   0.81681   0.81977   0.83267
 Alpha virt. eigenvalues --    0.83585   0.84559   0.85557   0.86536   0.88068
 Alpha virt. eigenvalues --    0.88862   0.90528   0.90710   0.92003   0.92053
 Alpha virt. eigenvalues --    0.93889   0.94380   0.95477   0.95993   0.97050
 Alpha virt. eigenvalues --    0.98289   0.98590   0.99122   0.99628   1.00742
 Alpha virt. eigenvalues --    1.01798   1.02777   1.03511   1.04563   1.05271
 Alpha virt. eigenvalues --    1.05686   1.09141   1.09895   1.11190   1.11859
 Alpha virt. eigenvalues --    1.13595   1.15004   1.16382   1.17381   1.18767
 Alpha virt. eigenvalues --    1.20753   1.22805   1.25440   1.26920   1.29587
 Alpha virt. eigenvalues --    1.31447   1.32992   1.34492   1.35339   1.36681
 Alpha virt. eigenvalues --    1.39542   1.41265   1.42024   1.43396   1.43904
 Alpha virt. eigenvalues --    1.45245   1.48703   1.51256   1.52092   1.53713
 Alpha virt. eigenvalues --    1.54526   1.55417   1.56268   1.57976   1.59363
 Alpha virt. eigenvalues --    1.62713   1.64563   1.66585   1.67786   1.69770
 Alpha virt. eigenvalues --    1.72873   1.74329   1.77242   1.78211   1.81375
 Alpha virt. eigenvalues --    1.83556   1.85665   1.87340   1.92865   1.93942
 Alpha virt. eigenvalues --    1.96443   1.97765   2.00055   2.01764   2.06325
 Alpha virt. eigenvalues --    2.06742   2.08673   2.15333   2.18570   2.19508
 Alpha virt. eigenvalues --    2.20155   2.23837   2.28312   2.32667   2.33418
 Alpha virt. eigenvalues --    2.38920   2.46029   2.52428   2.68529   2.74033
 Alpha virt. eigenvalues --    2.80851   2.81923   2.83218   2.87305   2.88909
 Alpha virt. eigenvalues --    2.92782   2.99121   3.01149   3.02346   3.04766
 Alpha virt. eigenvalues --    3.07106   3.09504   3.10402   3.10783   3.14209
 Alpha virt. eigenvalues --    3.15730   3.16225   3.20094   3.23623   3.24845
 Alpha virt. eigenvalues --    3.27789   3.31511   3.35853   3.37770   3.40610
 Alpha virt. eigenvalues --    3.44311   3.50046   3.51760   3.53857   3.67154
 Alpha virt. eigenvalues --    3.68284   3.73808   3.74458   3.75886   3.79941
 Alpha virt. eigenvalues --    3.82061   3.84743   3.88534   3.92297   3.93566
 Alpha virt. eigenvalues --    3.95852   3.99600   4.01371   4.03674   4.05897
 Alpha virt. eigenvalues --    4.09224   4.10242   4.10712   4.13356   4.14481
 Alpha virt. eigenvalues --    4.14833   4.15777   4.15886   4.16249   4.18140
 Alpha virt. eigenvalues --    4.18642   4.19517   4.20663   4.20932   4.22094
 Alpha virt. eigenvalues --    4.22440   4.22680   4.24331   4.24770   4.25407
 Alpha virt. eigenvalues --    4.30743   4.32028   4.32797   4.35195   4.37566
 Alpha virt. eigenvalues --    4.38978   4.39344   4.40723   4.42758   4.44024
 Alpha virt. eigenvalues --    4.46487   4.48704   4.50198   4.51700   4.54344
 Alpha virt. eigenvalues --    4.55022   4.55844   4.56377   4.58287   4.59096
 Alpha virt. eigenvalues --    4.60392   4.61577   4.64057   4.65140   4.66983
 Alpha virt. eigenvalues --    4.67800   4.71187   4.72209   4.73927   4.74279
 Alpha virt. eigenvalues --    4.77179   4.77710   4.82578   4.83003   4.88471
 Alpha virt. eigenvalues --    4.97773   5.01352   5.03615   5.03784   5.05164
 Alpha virt. eigenvalues --    5.06853   5.13246   5.23869   5.24459   5.39123
 Alpha virt. eigenvalues --    5.40315   5.44645   5.46063   5.53190   5.58590
 Alpha virt. eigenvalues --    5.62912   5.70974   5.77561   5.85706   5.94259
 Alpha virt. eigenvalues --    5.98181   6.16383   6.24923   6.35679   6.43699
 Alpha virt. eigenvalues --    6.58059   6.58275   6.58605   6.58800   6.59367
 Alpha virt. eigenvalues --    6.59436   6.59727   6.59852   6.59918   6.60057
 Alpha virt. eigenvalues --    6.60187   6.60588   6.60779   6.62297   6.63489
 Alpha virt. eigenvalues --    6.64806   6.65272   6.68148   6.71371   6.72672
 Alpha virt. eigenvalues --    6.72889   6.76173   6.78040   6.82049   6.82698
 Alpha virt. eigenvalues --    6.91506   7.01624   7.06249   7.10072   7.13223
 Alpha virt. eigenvalues --    7.15534   7.17485   7.21098   7.22449   7.23658
 Alpha virt. eigenvalues --    7.27582   7.31447   7.34656   7.37209   7.37608
 Alpha virt. eigenvalues --    7.40460   7.44578   7.51609   7.92291   8.08217
 Alpha virt. eigenvalues --    9.44884   9.55011   9.55830   9.60687   9.60839
 Alpha virt. eigenvalues --    9.72592  10.21416  11.01210  11.53695  12.07755
 Alpha virt. eigenvalues --   12.18645  13.22893  13.49911
          Condensed to atoms (all electrons):
               1          2          3          4          5          6
     1  C    4.214619   0.428213   0.425960   0.463201   0.188569  -0.008670
     2  F    0.428213   8.742212  -0.043400  -0.038678  -0.023032   0.001705
     3  F    0.425960  -0.043400   8.750929  -0.038184  -0.023594   0.001361
     4  F    0.463201  -0.038678  -0.038184   8.724426  -0.063491   0.013215
     5  C    0.188569  -0.023032  -0.023594  -0.063491   5.053162   0.263572
     6  C   -0.008670   0.001705   0.001361   0.013215   0.263572   5.674414
     7  C    0.002321  -0.000083  -0.000077   0.000742   0.001242   0.178018
     8  O    0.000243   0.000000   0.000000  -0.000000  -0.001430  -0.066926
     9  C   -0.000095  -0.000000  -0.000000  -0.000004  -0.000990  -0.036984
    10  F   -0.000006   0.000000   0.000000   0.000000   0.001261   0.013764
    11  F   -0.000001   0.000000   0.000000   0.000000  -0.000055   0.003475
    12  F    0.000000   0.000000   0.000000   0.000000  -0.000076   0.002729
    13  H   -0.001646   0.000177   0.000175   0.008770  -0.028544   0.361867
    14  O   -0.008465  -0.002909  -0.002820   0.000293   0.441710  -0.039582
    15  H    0.001813  -0.000085  -0.000098  -0.000017  -0.043771  -0.013084
               7          8          9         10         11         12
     1  C    0.002321   0.000243  -0.000095  -0.000006  -0.000001   0.000000
     2  F   -0.000083   0.000000  -0.000000   0.000000   0.000000   0.000000
     3  F   -0.000077   0.000000  -0.000000   0.000000   0.000000   0.000000
     4  F    0.000742  -0.000000  -0.000004   0.000000   0.000000   0.000000
     5  C    0.001242  -0.001430  -0.000990   0.001261  -0.000055  -0.000076
     6  C    0.178018  -0.066926  -0.036984   0.013764   0.003475   0.002729
     7  C    4.811784   0.639144   0.214978  -0.048120  -0.027736  -0.020370
     8  O    0.639144   7.803601  -0.023557   0.000335  -0.001572  -0.002422
     9  C    0.214978  -0.023557   4.366657   0.366786   0.362634   0.398961
    10  F   -0.048120   0.000335   0.366786   8.843754  -0.029750  -0.026823
    11  F   -0.027736  -0.001572   0.362634  -0.029750   8.846304  -0.029918
    12  F   -0.020370  -0.002422   0.398961  -0.026823  -0.029918   8.773606
    13  H   -0.025464   0.001737   0.001855   0.007679  -0.000008   0.000123
    14  O   -0.004547  -0.032871   0.000080  -0.000000   0.000000   0.000000
    15  H   -0.005509   0.071497   0.000896  -0.000008  -0.000019  -0.000001
              13         14         15
     1  C   -0.001646  -0.008465   0.001813
     2  F    0.000177  -0.002909  -0.000085
     3  F    0.000175  -0.002820  -0.000098
     4  F    0.008770   0.000293  -0.000017
     5  C   -0.028544   0.441710  -0.043771
     6  C    0.361867  -0.039582  -0.013084
     7  C   -0.025464  -0.004547  -0.005509
     8  O    0.001737  -0.032871   0.071497
     9  C    0.001855   0.000080   0.000896
    10  F    0.007679  -0.000000  -0.000008
    11  F   -0.000008   0.000000  -0.000019
    12  F    0.000123   0.000000  -0.000001
    13  H    0.510486   0.001662  -0.000218
    14  O    0.001662   7.739004   0.290057
    15  H   -0.000218   0.290057   0.350823
 Mulliken charges:
               1
     1  C    0.293944
     2  F   -0.064120
     3  F   -0.070252
     4  F   -0.070273
     5  C    0.235467
     6  C   -0.348873
     7  C    0.283677
     8  O   -0.387777
     9  C    0.348782
    10  F   -0.128872
    11  F   -0.123355
    12  F   -0.095808
    13  H    0.161350
    14  O   -0.381612
    15  H    0.347723
 Sum of Mulliken charges =  -0.00000
 Mulliken charges with hydrogens summed into heavy atoms:
               1
     1  C    0.293944
     2  F   -0.064120
     3  F   -0.070252
     4  F   -0.070273
     5  C    0.235467
     6  C   -0.187523
     7  C    0.283677
     8  O   -0.387777
     9  C    0.348782
    10  F   -0.128872
    11  F   -0.123355
    12  F   -0.095808
    14  O   -0.033890
 Electronic spatial extent (au):  <R**2>=           2843.8046
 Charge=              0.0000 electrons
 Dipole moment (field-independent basis, Debye):
    X=              0.4753    Y=             -0.6888    Z=             -0.1642  Tot=              0.8528
 Quadrupole moment (field-independent basis, Debye-Ang):
   XX=            -75.6678   YY=            -69.6059   ZZ=            -68.1313
   XY=              0.4793   XZ=              0.2101   YZ=              0.0405
 Traceless Quadrupole moment (field-independent basis, Debye-Ang):
   XX=             -4.5328   YY=              1.5291   ZZ=              3.0037
   XY=              0.4793   XZ=              0.2101   YZ=              0.0405
 Octapole moment (field-independent basis, Debye-Ang**2):
  XXX=              3.5681  YYY=            -10.7796  ZZZ=              0.1313  XYY=              3.6577
  XXY=             -8.6202  XXZ=              0.3594  XZZ=              0.1436  YZZ=             -2.0214
  YYZ=              1.0775  XYZ=             -0.3451
 Hexadecapole moment (field-independent basis, Debye-Ang**3):
 XXXX=          -2239.5212 YYYY=           -434.1873 ZZZZ=           -188.7114 XXXY=             -0.8666
 XXXZ=             -1.1111 YYYX=              6.4059 YYYZ=             -0.0149 ZZZX=              2.3559
 ZZZY=              0.2757 XXYY=           -457.7474 XXZZ=           -406.3608 YYZZ=           -104.2559
 XXYZ=              0.8137 YYXZ=             -2.3086 ZZXY=             -2.8925
 N-N= 8.733396375293D+02 E-N=-3.973943286443D+03  KE= 9.350650470426D+02
 Calling FoFJK, ICntrl=      2127 FMM=F ISym2X=0 I1Cent= 0 IOpClX= 0 NMat=1 NMatS=1 NMatT=0.
 ***** Axes restored to original set *****
 -------------------------------------------------------------------
 Center     Atomic                   Forces (Hartrees/Bohr)
 Number     Number              X              Y              Z
 -------------------------------------------------------------------
      1        6          -0.004518944   -0.001366944    0.001242097
      2        9           0.002300845   -0.001238911    0.007323023
      3        9           0.004915880   -0.005210856   -0.009150451
      4        9          -0.001489454    0.011612207   -0.000492076
      5        6           0.002049517    0.009512085   -0.000409360
      6        6          -0.000916925    0.000234431    0.000607846
      7        6          -0.000236481    0.011950354   -0.005637015
      8        8           0.000578901   -0.022210032    0.004223927
      9        6           0.024426509   -0.014148436    0.001245238
     10        9           0.013722159    0.043251216   -0.036979147
     11        9          -0.003148217    0.015225312    0.057019407
     12        9          -0.038209540   -0.039850443   -0.019785509
     13        1          -0.000323823    0.012097059   -0.002486359
     14        8           0.001251483   -0.017715996    0.002775116
     15        1          -0.000401911   -0.002141047    0.000503263
 -------------------------------------------------------------------
 Cartesian Forces:  Max     0.057019407 RMS     0.016850217

 GradGradGradGradGradGradGradGradGradGradGradGradGradGradGradGradGradGrad
 Berny optimization.
 FormGI is forming the generalized inverse of G from B-inverse, IUseBI=4.
 Internal  Forces:  Max     0.058540408 RMS     0.014698539
 Search for a local minimum.
 Step number   1 out of a maximum of   68
 All quantities printed in internal units (Hartrees-Bohrs-Radians)
 Mixed Optimization -- RFO/linear search
 Second derivative matrix not updated -- first step.
 ITU=  0
     Eigenvalues ---    0.00230   0.00430   0.00788   0.01494   0.01588
     Eigenvalues ---    0.02004   0.02519   0.02592   0.10918   0.11040
     Eigenvalues ---    0.11193   0.11570   0.15999   0.16000   0.22000
     Eigenvalues ---    0.24944   0.25000   0.25000   0.25000   0.25000
     Eigenvalues ---    0.25000   0.25000   0.25000   0.25000   0.25000
     Eigenvalues ---    0.27928   0.29854   0.34214   0.38910   0.42592
     Eigenvalues ---    0.43010   0.46971   0.47951   0.51460   0.55787
     Eigenvalues ---    0.55818   0.57117   0.59043   0.85252
 RFO step:  Lambda=-2.74196993D-02 EMin= 2.30000000D-03
 Linear search not attempted -- first point.
 Iteration  1 RMS(Cart)=  0.04181606 RMS(Int)=  0.00124738
 Iteration  2 RMS(Cart)=  0.00174934 RMS(Int)=  0.00028322
 Iteration  3 RMS(Cart)=  0.00000313 RMS(Int)=  0.00028320
 Iteration  4 RMS(Cart)=  0.00000000 RMS(Int)=  0.00028320
 Variable       Old X    -DE/DX   Delta X   Delta X   Delta X     New X
                                 (Linear)    (Quad)   (Total)
    R1        2.53297  -0.00755   0.00000  -0.01261  -0.01261   2.52037
    R2        2.54439  -0.01151   0.00000  -0.01967  -0.01967   2.52473
    R3        2.54412  -0.01167   0.00000  -0.01992  -0.01992   2.52420
    R4        2.88256  -0.00291   0.00000  -0.00892  -0.00892   2.87363
    R5        2.58420  -0.00694   0.00000  -0.01280  -0.01280   2.57140
    R6        2.51705  -0.02011   0.00000  -0.03255  -0.03255   2.48450
    R7        2.73061  -0.00551   0.00000  -0.01322  -0.01322   2.71739
    R8        2.06971  -0.01235   0.00000  -0.03342  -0.03342   2.03629
    R9        2.35202  -0.02256   0.00000  -0.02564  -0.02564   2.32637
   R10        2.92296  -0.00504   0.00000  -0.01644  -0.01644   2.90652
   R11        2.68177  -0.05784   0.00000  -0.12760  -0.12760   2.55417
   R12        2.67657  -0.05854   0.00000  -0.12795  -0.12795   2.54862
   R13        2.63052  -0.05802   0.00000  -0.11672  -0.11672   2.51380
   R14        1.88691  -0.00119   0.00000  -0.00235  -0.00235   1.88456
    A1        1.89614  -0.00236   0.00000  -0.00825  -0.00829   1.88785
    A2        1.89064  -0.00031   0.00000   0.00122   0.00121   1.89185
    A3        1.91734   0.00282   0.00000   0.01152   0.01150   1.92884
    A4        1.89581  -0.00158   0.00000  -0.00827  -0.00826   1.88755
    A5        1.91912   0.00204   0.00000   0.00614   0.00613   1.92525
    A6        1.94387  -0.00075   0.00000  -0.00284  -0.00284   1.94103
    A7        2.12886   0.00358   0.00000   0.01289   0.01289   2.14174
    A8        1.96548  -0.00142   0.00000  -0.00512  -0.00512   1.96036
    A9        2.18884  -0.00215   0.00000  -0.00776  -0.00776   2.18108
   A10        2.04730   0.00274   0.00000   0.01109   0.01109   2.05839
   A11        2.11427  -0.00141   0.00000  -0.00576  -0.00576   2.10851
   A12        2.12154  -0.00133   0.00000  -0.00532  -0.00532   2.11622
   A13        2.17671  -0.00067   0.00000  -0.00188  -0.00198   2.17473
   A14        2.03264   0.00432   0.00000   0.01604   0.01593   2.04857
   A15        2.07162  -0.00359   0.00000  -0.01250  -0.01261   2.05901
   A16        1.90762   0.01290   0.00000   0.04765   0.04664   1.95426
   A17        1.88111   0.01051   0.00000   0.03648   0.03570   1.91681
   A18        1.93066   0.01094   0.00000   0.03975   0.03886   1.96952
   A19        1.90138  -0.01120   0.00000  -0.04099  -0.04184   1.85955
   A20        1.91787  -0.01140   0.00000  -0.03837  -0.03940   1.87847
   A21        1.92458  -0.01147   0.00000  -0.04354  -0.04414   1.88044
   A22        1.85640  -0.00356   0.00000  -0.01899  -0.01899   1.83741
    D1       -2.13234  -0.00022   0.00000   0.00007   0.00008  -2.13225
    D2        1.01257  -0.00025   0.00000  -0.00064  -0.00063   1.01194
    D3        2.06488  -0.00033   0.00000  -0.00075  -0.00076   2.06412
    D4       -1.07340  -0.00036   0.00000  -0.00145  -0.00147  -1.07487
    D5       -0.03756   0.00078   0.00000   0.00738   0.00739  -0.03017
    D6        3.10734   0.00075   0.00000   0.00668   0.00668   3.11403
    D7        3.12062   0.00003   0.00000   0.00055   0.00055   3.12117
    D8       -0.00747  -0.00004   0.00000  -0.00079  -0.00079  -0.00826
    D9       -0.02472   0.00007   0.00000   0.00136   0.00136  -0.02336
   D10        3.13037   0.00000   0.00000   0.00003   0.00003   3.13040
   D11        3.13945  -0.00012   0.00000  -0.00225  -0.00226   3.13720
   D12        0.00131  -0.00016   0.00000  -0.00304  -0.00303  -0.00173
   D13        0.03787   0.00006   0.00000   0.00432   0.00437   0.04224
   D14       -3.03106  -0.00083   0.00000  -0.02231  -0.02235  -3.05342
   D15       -3.11728   0.00012   0.00000   0.00566   0.00571  -3.11158
   D16        0.09697  -0.00076   0.00000  -0.02097  -0.02101   0.07596
   D17       -0.58549   0.00086   0.00000   0.01326   0.01328  -0.57221
   D18        1.47852   0.00060   0.00000   0.01138   0.01145   1.48997
   D19       -2.69940  -0.00032   0.00000   0.00466   0.00448  -2.69492
   D20        2.62419  -0.00007   0.00000  -0.01207  -0.01199   2.61220
   D21       -1.59499  -0.00033   0.00000  -0.01395  -0.01382  -1.60881
   D22        0.51027  -0.00126   0.00000  -0.02066  -0.02079   0.48948
         Item               Value     Threshold  Converged?
 Maximum Force            0.058540     0.000450     NO 
 RMS     Force            0.014699     0.000300     NO 
 Maximum Displacement     0.166279     0.001800     NO 
 RMS     Displacement     0.041321     0.001200     NO 
 Predicted change in Energy=-1.459680D-02
 GradGradGradGradGradGradGradGradGradGradGradGradGradGradGradGradGradGrad

                          Input orientation:                          
 ---------------------------------------------------------------------
 Center     Atomic      Atomic             Coordinates (Angstroms)
 Number     Number       Type             X           Y           Z
 ---------------------------------------------------------------------
      1          6           0       -2.525443   -0.302062    0.070448
      2          9           0       -3.230836   -0.110020   -1.045057
      3          9           0       -3.230815    0.180160    1.097523
      4          9           0       -2.372557   -1.616631    0.251428
      5          6           0       -1.180113    0.400740   -0.022126
      6          6           0        0.003828   -0.257503    0.106599
      7          6           0        1.216128    0.504714   -0.024338
      8          8           0        1.260764    1.721897   -0.203202
      9          6           0        2.544838   -0.269457    0.004333
     10          9           0        2.480112   -1.355500    0.806310
     11          9           0        2.837360   -0.721930   -1.232037
     12          9           0        3.567528    0.474968    0.416027
     13          1           0        0.027994   -1.319146    0.289544
     14          8           0       -1.305006    1.692321   -0.233705
     15          1           0       -0.372483    2.043754   -0.271566
 ---------------------------------------------------------------------
                    Distance matrix (angstroms):
                    1          2          3          4          5
     1  C    0.000000
     2  F    1.333720   0.000000
     3  F    1.336028   2.162142   0.000000
     4  F    1.335747   2.165039   2.163548   0.000000
     5  C    1.520662   2.347920   2.346838   2.359352   0.000000
     6  C    2.529922   3.436730   3.411216   2.741425   1.360725
     7  C    3.828736   4.603830   4.597739   4.177895   2.398496
     8  O    4.301937   4.923323   4.923730   4.955147   2.781389
     9  C    5.070817   5.872397   5.895370   5.104577   3.784855
    10  F    5.167863   6.131370   5.920958   4.891265   4.143421
    11  F    5.534656   6.101836   6.562268   5.490391   4.343313
    12  F    6.152032   6.978160   6.838772   6.299721   4.768394
    13  H    2.757264   3.723320   3.677034   2.419213   2.124775
    14  O    2.357867   2.759628   2.787031   3.510582   1.314741
    15  H    3.202353   3.661586   3.676609   4.203836   1.847696
                    6          7          8          9         10
     6  C    0.000000
     7  C    1.437981   0.000000
     8  O    2.365140   1.231064   0.000000
     9  C    2.543095   1.538062   2.378530   0.000000
    10  F    2.797709   2.397505   3.460678   1.351608   0.000000
    11  F    3.168050   2.364654   3.084874   1.348670   2.164231
    12  F    3.651330   2.392465   2.694333   1.330246   2.164580
    13  H    1.077561   2.199238   3.318201   2.741842   2.506243
    14  O    2.372903   2.794702   2.566122   4.327417   4.969705
    15  H    2.362288   2.225634   1.666062   3.733340   4.566622
                   11         12         13         14         15
    11  F    0.000000
    12  F    2.163752   0.000000
    13  H    3.250295   3.970282   0.000000
    14  O    4.897395   5.064157   3.334608   0.000000
    15  H    4.344491   4.296225   3.432830   0.997266   0.000000
 Stoichiometry    C5H2F6O2
 Framework group  C1[X(C5H2F6O2)]
 Deg. of freedom    39
 Full point group                 C1      NOp   1
 Largest Abelian subgroup         C1      NOp   1
 Largest concise Abelian subgroup C1      NOp   1
                         Standard orientation:                         
 ---------------------------------------------------------------------
 Center     Atomic      Atomic             Coordinates (Angstroms)
 Number     Number       Type             X           Y           Z
 ---------------------------------------------------------------------
      1          6           0        2.526887   -0.309029    0.004397
      2          9           0        3.217467    0.029762    1.093952
      3          9           0        3.246630    0.032916   -1.067990
      4          9           0        2.374740   -1.636065   -0.002509
      5          6           0        1.181348    0.399173   -0.015320
      6          6           0       -0.001610   -0.270923   -0.071488
      7          6           0       -1.214569    0.501328   -0.059277
      8          8           0       -1.260025    1.731459   -0.044206
      9          6           0       -2.543778   -0.270458   -0.002849
     10          9           0       -2.469686   -1.453328   -0.652599
     11          9           0       -2.853484   -0.554927    1.278584
     12          9           0       -3.559872    0.412210   -0.523494
     13          1           0       -0.024692   -1.347468   -0.112181
     14          8           0        1.305063    1.707472    0.024586
     15          1           0        0.372572    2.060356    0.002864
 ---------------------------------------------------------------------
 Rotational constants (GHZ):           1.6989224           0.3755182           0.3448638
 Standard basis: GTBas3 (6D, 7F)
 There are   413 symmetry adapted cartesian basis functions of A   symmetry.
 There are   374 symmetry adapted basis functions of A   symmetry.
   374 basis functions,   586 primitive gaussians,   413 cartesian basis functions
    51 alpha electrons       51 beta electrons
       nuclear repulsion energy       883.3965268471 Hartrees.
 NAtoms=   15 NActive=   15 NUniq=   15 SFac= 1.00D+00 NAtFMM=   60 NAOKFM=F Big=F
 Integral buffers will be    131072 words long.
 Raffenetti 2 integral format.
 Two-electron integral symmetry is turned on.
 One-electron integrals computed using PRISM.
 NBasis=   374 RedAO= T EigKep=  3.14D-04  NBF=   374
 NBsUse=   374 1.00D-06 EigRej= -1.00D+00 NBFU=   374
 Initial guess from the checkpoint file:  "/home/artemiy/opt/gaussian/scr/Gau-1864.chk"
 B after Tr=     0.000000   -0.000000   -0.000000
         Rot=    0.999998   -0.000218    0.000142    0.001940 Ang=  -0.22 deg.
 ExpMin= 1.61D-01 ExpMax= 7.00D+03 ExpMxC= 1.05D+03 IAcc=2 IRadAn=         4 AccDes= 0.00D+00
 Harris functional with IExCor=  402 and IRadAn=       4 diagonalized for initial guess.
 HarFok:  IExCor=  402 AccDes= 0.00D+00 IRadAn=         4 IDoV= 1 UseB2=F ITyADJ=14
 ICtDFT=  3500011 ScaDFX=  1.000000  1.000000  1.000000  1.000000
 FoFCou: FMM=F IPFlag=           0 FMFlag=      100000 FMFlg1=           0
         NFxFlg=           0 DoJE=T BraDBF=F KetDBF=T FulRan=T
         wScrn=  0.000000 ICntrl=       500 IOpCl=  0 I1Cent=   200000004 NGrid=           0
         NMat0=    1 NMatS0=      1 NMatT0=    0 NMatD0=    1 NMtDS0=    0 NMtDT0=    0
 Petite list used in FoFCou.
 Requested convergence on RMS density matrix=1.00D-08 within 128 cycles.
 Requested convergence on MAX density matrix=1.00D-06.
 Requested convergence on             energy=1.00D-06.
 No special actions if energy rises.
 Integral accuracy reduced to 1.0D-05 until final iterations.
 Initial convergence to 1.0D-05 achieved.  Increase integral accuracy.
 SCF Done:  E(RB3LYP) =  -941.273603452     A.U. after   12 cycles
            NFock= 12  Conv=0.55D-08     -V/T= 2.0059
 Calling FoFJK, ICntrl=      2127 FMM=F ISym2X=0 I1Cent= 0 IOpClX= 0 NMat=1 NMatS=1 NMatT=0.
 ***** Axes restored to original set *****
 -------------------------------------------------------------------
 Center     Atomic                   Forces (Hartrees/Bohr)
 Number     Number              X              Y              Z
 -------------------------------------------------------------------
      1        6          -0.003119318   -0.002656138    0.001637326
      2        9           0.000936971    0.000447999    0.000118130
      3        9           0.001023869    0.000457914   -0.000903698
      4        9           0.000695974    0.000939298   -0.000388414
      5        6          -0.001945141    0.002182322   -0.000275753
      6        6           0.000816141    0.000481657   -0.000114841
      7        6          -0.000522750    0.000071703    0.000614753
      8        8          -0.000857586    0.000099009   -0.000175917
      9        6           0.017902568   -0.015122111   -0.000080320
     10        9          -0.004361317    0.007637316   -0.003125933
     11        9          -0.004901381    0.004548285    0.004019638
     12        9          -0.007554513    0.001565560   -0.001048485
     13        1           0.000097376   -0.000295079   -0.000317058
     14        8           0.000738251   -0.003422058    0.000445388
     15        1           0.001050855    0.003064323   -0.000404816
 -------------------------------------------------------------------
 Cartesian Forces:  Max     0.017902568 RMS     0.004258906

 GradGradGradGradGradGradGradGradGradGradGradGradGradGradGradGradGradGrad
 Berny optimization.
 Using GEDIIS/GDIIS optimizer.
 FormGI is forming the generalized inverse of G from B-inverse, IUseBI=4.
 Internal  Forces:  Max     0.007783074 RMS     0.002680383
 Search for a local minimum.
 Step number   2 out of a maximum of   68
 All quantities printed in internal units (Hartrees-Bohrs-Radians)
 Mixed Optimization -- RFO/linear search
 Update second derivatives using D2CorX and points    1    2
 DE= -1.50D-02 DEPred=-1.46D-02 R= 1.03D+00
 TightC=F SS=  1.41D+00  RLast= 2.54D-01 DXNew= 5.0454D-01 7.6306D-01
 Trust test= 1.03D+00 RLast= 2.54D-01 DXMaxT set to 5.05D-01
 ITU=  1  0
 Use linear search instead of GDIIS.
     Eigenvalues ---    0.00230   0.00430   0.00786   0.01494   0.01581
     Eigenvalues ---    0.02004   0.02519   0.02592   0.10265   0.10870
     Eigenvalues ---    0.10887   0.11056   0.15999   0.16052   0.21994
     Eigenvalues ---    0.24885   0.24979   0.25000   0.25000   0.25000
     Eigenvalues ---    0.25000   0.25000   0.25000   0.25000   0.26994
     Eigenvalues ---    0.28076   0.29878   0.34378   0.38878   0.40642
     Eigenvalues ---    0.42942   0.46575   0.48133   0.51570   0.55743
     Eigenvalues ---    0.55811   0.57111   0.59116   0.85366
 RFO step:  Lambda=-1.57970035D-03 EMin= 2.30035628D-03
 Quartic linear search produced a step of  0.02272.
 Iteration  1 RMS(Cart)=  0.01950009 RMS(Int)=  0.00034531
 Iteration  2 RMS(Cart)=  0.00034475 RMS(Int)=  0.00009773
 Iteration  3 RMS(Cart)=  0.00000008 RMS(Int)=  0.00009773
 Variable       Old X    -DE/DX   Delta X   Delta X   Delta X     New X
                                 (Linear)    (Quad)   (Total)
    R1        2.52037  -0.00053  -0.00029  -0.00136  -0.00165   2.51872
    R2        2.52473  -0.00107  -0.00045  -0.00260  -0.00305   2.52168
    R3        2.52420  -0.00090  -0.00045  -0.00229  -0.00274   2.52145
    R4        2.87363   0.00081  -0.00020   0.00252   0.00231   2.87595
    R5        2.57140   0.00101  -0.00029   0.00158   0.00129   2.57269
    R6        2.48450  -0.00053  -0.00074  -0.00199  -0.00273   2.48177
    R7        2.71739  -0.00090  -0.00030  -0.00276  -0.00306   2.71433
    R8        2.03629   0.00024  -0.00076  -0.00028  -0.00104   2.03526
    R9        2.32637   0.00009  -0.00058  -0.00077  -0.00136   2.32502
   R10        2.90652   0.00162  -0.00037   0.00545   0.00508   2.91159
   R11        2.55417  -0.00778  -0.00290  -0.02260  -0.02549   2.52867
   R12        2.54862  -0.00627  -0.00291  -0.01886  -0.02177   2.52685
   R13        2.51380  -0.00526  -0.00265  -0.01511  -0.01777   2.49604
   R14        1.88456   0.00208  -0.00005   0.00434   0.00429   1.88885
    A1        1.88785   0.00088  -0.00019   0.00222   0.00202   1.88987
    A2        1.89185   0.00099   0.00003   0.00349   0.00350   1.89535
    A3        1.92884  -0.00129   0.00026  -0.00582  -0.00558   1.92327
    A4        1.88755   0.00135  -0.00019   0.00696   0.00677   1.89432
    A5        1.92525  -0.00099   0.00014  -0.00356  -0.00343   1.92182
    A6        1.94103  -0.00081  -0.00006  -0.00278  -0.00285   1.93817
    A7        2.14174  -0.00083   0.00029  -0.00303  -0.00274   2.13901
    A8        1.96036   0.00021  -0.00012   0.00072   0.00060   1.96096
    A9        2.18108   0.00062  -0.00018   0.00231   0.00213   2.18321
   A10        2.05839   0.00012   0.00025   0.00086   0.00111   2.05949
   A11        2.10851   0.00003  -0.00013   0.00018   0.00004   2.10855
   A12        2.11622  -0.00015  -0.00012  -0.00099  -0.00111   2.11511
   A13        2.17473  -0.00138  -0.00005  -0.00557  -0.00562   2.16910
   A14        2.04857   0.00076   0.00036   0.00357   0.00392   2.05250
   A15        2.05901   0.00062  -0.00029   0.00228   0.00198   2.06099
   A16        1.95426  -0.00593   0.00106  -0.02226  -0.02147   1.93279
   A17        1.91681  -0.00493   0.00081  -0.01770  -0.01711   1.89970
   A18        1.96952  -0.00735   0.00088  -0.03092  -0.03039   1.93913
   A19        1.85955   0.00649  -0.00095   0.02929   0.02821   1.88776
   A20        1.87847   0.00691  -0.00090   0.02457   0.02328   1.90175
   A21        1.88044   0.00618  -0.00100   0.02264   0.02133   1.90176
   A22        1.83741   0.00474  -0.00043   0.02964   0.02921   1.86662
    D1       -2.13225  -0.00002   0.00000   0.00818   0.00818  -2.12407
    D2        1.01194   0.00000  -0.00001   0.00976   0.00975   1.02168
    D3        2.06412   0.00034  -0.00002   0.01140   0.01138   2.07550
    D4       -1.07487   0.00036  -0.00003   0.01298   0.01294  -1.06193
    D5       -0.03017  -0.00017   0.00017   0.00683   0.00700  -0.02316
    D6        3.11403  -0.00015   0.00015   0.00841   0.00857   3.12259
    D7        3.12117   0.00021   0.00001   0.00893   0.00894   3.13012
    D8       -0.00826   0.00011  -0.00002   0.00427   0.00425  -0.00401
    D9       -0.02336   0.00019   0.00003   0.00714   0.00717  -0.01618
   D10        3.13040   0.00009   0.00000   0.00248   0.00248   3.13288
   D11        3.13720  -0.00008  -0.00005  -0.00297  -0.00302   3.13418
   D12       -0.00173  -0.00005  -0.00007  -0.00134  -0.00140  -0.00313
   D13        0.04224  -0.00024   0.00010  -0.01401  -0.01392   0.02831
   D14       -3.05342  -0.00040  -0.00051  -0.02166  -0.02216  -3.07557
   D15       -3.11158  -0.00013   0.00013  -0.00932  -0.00920  -3.12078
   D16        0.07596  -0.00030  -0.00048  -0.01696  -0.01743   0.05853
   D17       -0.57221  -0.00054   0.00030   0.01165   0.01206  -0.56015
   D18        1.48997   0.00064   0.00026   0.02274   0.02293   1.51290
   D19       -2.69492   0.00019   0.00010   0.01869   0.01877  -2.67615
   D20        2.61220  -0.00065  -0.00027   0.00474   0.00456   2.61676
   D21       -1.60881   0.00054  -0.00031   0.01583   0.01543  -1.59337
   D22        0.48948   0.00009  -0.00047   0.01178   0.01127   0.50076
         Item               Value     Threshold  Converged?
 Maximum Force            0.007783     0.000450     NO 
 RMS     Force            0.002680     0.000300     NO 
 Maximum Displacement     0.061724     0.001800     NO 
 RMS     Displacement     0.019530     0.001200     NO 
 Predicted change in Energy=-8.090560D-04
 GradGradGradGradGradGradGradGradGradGradGradGradGradGradGradGradGradGrad

                          Input orientation:                          
 ---------------------------------------------------------------------
 Center     Atomic      Atomic             Coordinates (Angstroms)
 Number     Number       Type             X           Y           Z
 ---------------------------------------------------------------------
      1          6           0       -2.522239   -0.303534    0.078896
      2          9           0       -3.227951   -0.111737   -1.035406
      3          9           0       -3.218506    0.188807    1.105287
      4          9           0       -2.365880   -1.615793    0.262941
      5          6           0       -1.175754    0.398174   -0.024658
      6          6           0        0.007163   -0.265665    0.091319
      7          6           0        1.220857    0.491712   -0.036953
      8          8           0        1.262904    1.708120   -0.216778
      9          6           0        2.552785   -0.281577    0.006670
     10          9           0        2.453139   -1.352491    0.802768
     11          9           0        2.846816   -0.705288   -1.227019
     12          9           0        3.534865    0.486955    0.441996
     13          1           0        0.028644   -1.328042    0.266961
     14          8           0       -1.299880    1.689499   -0.229179
     15          1           0       -0.375662    2.067168   -0.276664
 ---------------------------------------------------------------------
                    Distance matrix (angstroms):
                    1          2          3          4          5
     1  C    0.000000
     2  F    1.332849   0.000000
     3  F    1.334416   2.161709   0.000000
     4  F    1.334296   2.165885   2.166356   0.000000
     5  C    1.521887   2.343744   2.343810   2.356943   0.000000
     6  C    2.529716   3.429165   3.411688   2.735623   1.361407
     7  C    3.828395   4.599235   4.593954   4.170875   2.398468
     8  O    4.296682   4.914246   4.913166   4.944350   2.774873
     9  C    5.075585   5.876366   5.893727   5.102849   3.790125
    10  F    5.136019   6.098618   5.885123   4.856304   4.113190
    11  F    5.540178   6.106703   6.559511   5.497381   4.341011
    12  F    6.119250   6.948153   6.792412   6.266769   4.734510
    13  H    2.755357   3.712274   3.680707   2.411755   2.124957
    14  O    2.358230   2.758969   2.777409   3.507633   1.313299
    15  H    3.217833   3.668634   3.676927   4.220942   1.867939
                    6          7          8          9         10
     6  C    0.000000
     7  C    1.436359   0.000000
     8  O    2.359584   1.230346   0.000000
     9  C    2.547078   1.540750   2.381725   0.000000
    10  F    2.769503   2.371652   3.438527   1.338117   0.000000
    11  F    3.161473   2.343674   3.058415   1.337152   2.166539
    12  F    3.624099   2.363058   2.662148   1.320845   2.164220
    13  H    1.077013   2.196643   3.312956   2.744836   2.483115
    14  O    2.373551   2.797456   2.562882   4.334027   4.940017
    15  H    2.392505   2.255748   1.678511   3.764662   4.567423
                   11         12         13         14         15
    11  F    0.000000
    12  F    2.163438   0.000000
    13  H    3.249906   3.952016   0.000000
    14  O    4.891398   5.027061   3.334169   0.000000
    15  H    4.355921   4.278524   3.462145   0.999534   0.000000
 Stoichiometry    C5H2F6O2
 Framework group  C1[X(C5H2F6O2)]
 Deg. of freedom    39
 Full point group                 C1      NOp   1
 Largest Abelian subgroup         C1      NOp   1
 Largest concise Abelian subgroup C1      NOp   1
                         Standard orientation:                         
 ---------------------------------------------------------------------
 Center     Atomic      Atomic             Coordinates (Angstroms)
 Number     Number       Type             X           Y           Z
 ---------------------------------------------------------------------
      1          6           0        2.523511   -0.308738    0.002668
      2          9           0        3.213024    0.034709    1.090373
      3          9           0        3.234826    0.039775   -1.071220
      4          9           0        2.369317   -1.634084   -0.002488
      5          6           0        1.175945    0.398398   -0.010161
      6          6           0       -0.005428   -0.276943   -0.051385
      7          6           0       -1.220554    0.488929   -0.045423
      8          8           0       -1.264722    1.718431   -0.034211
      9          6           0       -2.552017   -0.285180   -0.002171
     10          9           0       -2.441238   -1.454710   -0.642862
     11          9           0       -2.864126   -0.536730    1.273480
     12          9           0       -3.527355    0.415064   -0.552630
     13          1           0       -0.024780   -1.353390   -0.080430
     14          8           0        1.297603    1.705754    0.017672
     15          1           0        0.372944    2.084900   -0.000289
 ---------------------------------------------------------------------
 Rotational constants (GHZ):           1.7049821           0.3778037           0.3470514
 Standard basis: GTBas3 (6D, 7F)
 There are   413 symmetry adapted cartesian basis functions of A   symmetry.
 There are   374 symmetry adapted basis functions of A   symmetry.
   374 basis functions,   586 primitive gaussians,   413 cartesian basis functions
    51 alpha electrons       51 beta electrons
       nuclear repulsion energy       885.5566680699 Hartrees.
 NAtoms=   15 NActive=   15 NUniq=   15 SFac= 1.00D+00 NAtFMM=   60 NAOKFM=F Big=F
 Integral buffers will be    131072 words long.
 Raffenetti 2 integral format.
 Two-electron integral symmetry is turned on.
 One-electron integrals computed using PRISM.
 NBasis=   374 RedAO= T EigKep=  3.13D-04  NBF=   374
 NBsUse=   374 1.00D-06 EigRej= -1.00D+00 NBFU=   374
 Initial guess from the checkpoint file:  "/home/artemiy/opt/gaussian/scr/Gau-1864.chk"
 B after Tr=    -0.000000   -0.000000    0.000000
         Rot=    0.999999    0.001341    0.000579   -0.000418 Ang=   0.17 deg.
 ExpMin= 1.61D-01 ExpMax= 7.00D+03 ExpMxC= 1.05D+03 IAcc=2 IRadAn=         4 AccDes= 0.00D+00
 Harris functional with IExCor=  402 and IRadAn=       4 diagonalized for initial guess.
 HarFok:  IExCor=  402 AccDes= 0.00D+00 IRadAn=         4 IDoV= 1 UseB2=F ITyADJ=14
 ICtDFT=  3500011 ScaDFX=  1.000000  1.000000  1.000000  1.000000
 FoFCou: FMM=F IPFlag=           0 FMFlag=      100000 FMFlg1=           0
         NFxFlg=           0 DoJE=T BraDBF=F KetDBF=T FulRan=T
         wScrn=  0.000000 ICntrl=       500 IOpCl=  0 I1Cent=   200000004 NGrid=           0
         NMat0=    1 NMatS0=      1 NMatT0=    0 NMatD0=    1 NMtDS0=    0 NMtDT0=    0
 Petite list used in FoFCou.
 Requested convergence on RMS density matrix=1.00D-08 within 128 cycles.
 Requested convergence on MAX density matrix=1.00D-06.
 Requested convergence on             energy=1.00D-06.
 No special actions if energy rises.
 Integral accuracy reduced to 1.0D-05 until final iterations.
 Initial convergence to 1.0D-05 achieved.  Increase integral accuracy.
 SCF Done:  E(RB3LYP) =  -941.274168645     A.U. after   11 cycles
            NFock= 11  Conv=0.65D-08     -V/T= 2.0058
 Calling FoFJK, ICntrl=      2127 FMM=F ISym2X=0 I1Cent= 0 IOpClX= 0 NMat=1 NMatS=1 NMatT=0.
 ***** Axes restored to original set *****
 -------------------------------------------------------------------
 Center     Atomic                   Forces (Hartrees/Bohr)
 Number     Number              X              Y              Z
 -------------------------------------------------------------------
      1        6           0.000498053    0.000266574    0.000467176
      2        9          -0.000584930   -0.000239872   -0.000484588
      3        9          -0.000279123   -0.000322843    0.000020751
      4        9          -0.000479948    0.000111004    0.000041724
      5        6           0.001295645    0.001166933    0.000009847
      6        6          -0.001133987    0.000543773   -0.000256203
      7        6          -0.001981747    0.000978662    0.000350846
      8        8           0.000298804    0.001989786   -0.000365786
      9        6          -0.002498292   -0.000069425   -0.000005505
     10        9           0.001130374   -0.001797407    0.000515896
     11        9           0.001532418   -0.001365820   -0.001449659
     12        9           0.003222970    0.001309062    0.000962268
     13        1          -0.000250303   -0.000586821   -0.000017396
     14        8          -0.000412714    0.000627190   -0.000028489
     15        1          -0.000357222   -0.002610796    0.000239117
 -------------------------------------------------------------------
 Cartesian Forces:  Max     0.003222970 RMS     0.001093550

 GradGradGradGradGradGradGradGradGradGradGradGradGradGradGradGradGradGrad
 Berny optimization.
 Using GEDIIS/GDIIS optimizer.
 FormGI is forming the generalized inverse of G from B-inverse, IUseBI=4.
 Internal  Forces:  Max     0.004311072 RMS     0.001239113
 Search for a local minimum.
 Step number   3 out of a maximum of   68
 All quantities printed in internal units (Hartrees-Bohrs-Radians)
 Mixed Optimization -- RFO/linear search
 Update second derivatives using D2CorX and points    1    2    3
 DE= -5.65D-04 DEPred=-8.09D-04 R= 6.99D-01
 TightC=F SS=  1.41D+00  RLast= 9.62D-02 DXNew= 8.4853D-01 2.8874D-01
 Trust test= 6.99D-01 RLast= 9.62D-02 DXMaxT set to 5.05D-01
 ITU=  1  1  0
 Use linear search instead of GDIIS.
     Eigenvalues ---    0.00230   0.00430   0.00782   0.01491   0.01584
     Eigenvalues ---    0.02003   0.02510   0.02593   0.10770   0.10942
     Eigenvalues ---    0.11143   0.11177   0.15997   0.16934   0.21994
     Eigenvalues ---    0.23688   0.24986   0.25000   0.25000   0.25000
     Eigenvalues ---    0.25000   0.25000   0.25000   0.25032   0.26533
     Eigenvalues ---    0.29804   0.34009   0.34514   0.39057   0.41670
     Eigenvalues ---    0.43112   0.47915   0.49178   0.51577   0.55689
     Eigenvalues ---    0.55812   0.57175   0.59658   0.85835
 RFO step:  Lambda=-1.20868103D-04 EMin= 2.30148340D-03
 Quartic linear search produced a step of -0.22950.
 Iteration  1 RMS(Cart)=  0.01373160 RMS(Int)=  0.00010030
 Iteration  2 RMS(Cart)=  0.00010361 RMS(Int)=  0.00002099
 Iteration  3 RMS(Cart)=  0.00000000 RMS(Int)=  0.00002099
 Variable       Old X    -DE/DX   Delta X   Delta X   Delta X     New X
                                 (Linear)    (Quad)   (Total)
    R1        2.51872   0.00068   0.00038   0.00053   0.00090   2.51962
    R2        2.52168   0.00004   0.00070  -0.00068   0.00002   2.52170
    R3        2.52145  -0.00016   0.00063  -0.00086  -0.00023   2.52122
    R4        2.87595   0.00084  -0.00053   0.00287   0.00234   2.87828
    R5        2.57269  -0.00023  -0.00030   0.00011  -0.00018   2.57250
    R6        2.48177  -0.00191   0.00063  -0.00302  -0.00239   2.47938
    R7        2.71433   0.00199   0.00070   0.00311   0.00382   2.71814
    R8        2.03526   0.00057   0.00024   0.00118   0.00142   2.03668
    R9        2.32502   0.00203   0.00031   0.00163   0.00194   2.32696
   R10        2.91159   0.00389  -0.00117   0.01221   0.01105   2.92264
   R11        2.52867   0.00166   0.00585  -0.00352   0.00233   2.53101
   R12        2.52685   0.00211   0.00500  -0.00167   0.00332   2.53017
   R13        2.49604   0.00348   0.00408   0.00134   0.00542   2.50145
   R14        1.88885  -0.00133  -0.00098  -0.00087  -0.00185   1.88700
    A1        1.88987  -0.00038  -0.00046  -0.00016  -0.00062   1.88925
    A2        1.89535  -0.00058  -0.00080  -0.00089  -0.00169   1.89366
    A3        1.92327   0.00047   0.00128  -0.00013   0.00115   1.92442
    A4        1.89432  -0.00062  -0.00155  -0.00012  -0.00168   1.89265
    A5        1.92182   0.00051   0.00079   0.00059   0.00138   1.92320
    A6        1.93817   0.00055   0.00065   0.00067   0.00132   1.93950
    A7        2.13901   0.00104   0.00063   0.00231   0.00294   2.14195
    A8        1.96096   0.00045  -0.00014   0.00157   0.00143   1.96239
    A9        2.18321  -0.00149  -0.00049  -0.00388  -0.00437   2.17884
   A10        2.05949  -0.00005  -0.00025   0.00011  -0.00014   2.05935
   A11        2.10855  -0.00024  -0.00001  -0.00114  -0.00115   2.10740
   A12        2.11511   0.00029   0.00025   0.00106   0.00131   2.11643
   A13        2.16910   0.00003   0.00129  -0.00150  -0.00021   2.16889
   A14        2.05250   0.00047  -0.00090   0.00252   0.00162   2.05412
   A15        2.06099  -0.00050  -0.00045  -0.00088  -0.00133   2.05966
   A16        1.93279   0.00187   0.00493  -0.00073   0.00425   1.93704
   A17        1.89970   0.00174   0.00393  -0.00016   0.00381   1.90351
   A18        1.93913   0.00096   0.00698  -0.00609   0.00096   1.94009
   A19        1.88776  -0.00187  -0.00647   0.00245  -0.00401   1.88375
   A20        1.90175  -0.00139  -0.00534   0.00308  -0.00218   1.89958
   A21        1.90176  -0.00145  -0.00489   0.00171  -0.00312   1.89864
   A22        1.86662  -0.00431  -0.00670  -0.01188  -0.01859   1.84804
    D1       -2.12407   0.00012  -0.00188   0.01380   0.01192  -2.11215
    D2        1.02168   0.00009  -0.00224   0.01285   0.01061   1.03229
    D3        2.07550  -0.00003  -0.00261   0.01370   0.01109   2.08659
    D4       -1.06193  -0.00006  -0.00297   0.01275   0.00978  -1.05215
    D5       -0.02316   0.00006  -0.00161   0.01303   0.01143  -0.01174
    D6        3.12259   0.00003  -0.00197   0.01208   0.01011   3.13270
    D7        3.13012   0.00016  -0.00205   0.00798   0.00593   3.13604
    D8       -0.00401   0.00009  -0.00097   0.00364   0.00267  -0.00134
    D9       -0.01618   0.00020  -0.00165   0.00907   0.00743  -0.00876
   D10        3.13288   0.00013  -0.00057   0.00474   0.00417   3.13704
   D11        3.13418   0.00017   0.00069   0.00403   0.00473   3.13890
   D12       -0.00313   0.00013   0.00032   0.00304   0.00336   0.00023
   D13        0.02831  -0.00007   0.00320  -0.00775  -0.00455   0.02376
   D14       -3.07557  -0.00004   0.00508  -0.01217  -0.00709  -3.08266
   D15       -3.12078  -0.00000   0.00211  -0.00340  -0.00129  -3.12206
   D16        0.05853   0.00003   0.00400  -0.00782  -0.00382   0.05471
   D17       -0.56015   0.00008  -0.00277   0.01643   0.01363  -0.54652
   D18        1.51290  -0.00000  -0.00526   0.01889   0.01364   1.52654
   D19       -2.67615  -0.00008  -0.00431   0.01714   0.01283  -2.66332
   D20        2.61676   0.00010  -0.00105   0.01231   0.01124   2.62800
   D21       -1.59337   0.00001  -0.00354   0.01477   0.01125  -1.58212
   D22        0.50076  -0.00007  -0.00259   0.01302   0.01044   0.51120
         Item               Value     Threshold  Converged?
 Maximum Force            0.004311     0.000450     NO 
 RMS     Force            0.001239     0.000300     NO 
 Maximum Displacement     0.044177     0.001800     NO 
 RMS     Displacement     0.013741     0.001200     NO 
 Predicted change in Energy=-1.144758D-04
 GradGradGradGradGradGradGradGradGradGradGradGradGradGradGradGradGradGrad

                          Input orientation:                          
 ---------------------------------------------------------------------
 Center     Atomic      Atomic             Coordinates (Angstroms)
 Number     Number       Type             X           Y           Z
 ---------------------------------------------------------------------
      1          6           0       -2.528532   -0.300565    0.083272
      2          9           0       -3.233321   -0.118797   -1.033865
      3          9           0       -3.226432    0.201372    1.103905
      4          9           0       -2.377150   -1.611486    0.279700
      5          6           0       -1.179232    0.397722   -0.024837
      6          6           0        0.003998   -0.266313    0.085563
      7          6           0        1.218840    0.493509   -0.039990
      8          8           0        1.259738    1.711363   -0.217295
      9          6           0        2.557846   -0.279047    0.006678
     10          9           0        2.459810   -1.361929    0.788740
     11          9           0        2.868995   -0.689853   -1.229082
     12          9           0        3.536645    0.488276    0.459867
     13          1           0        0.024865   -1.330006    0.257895
     14          8           0       -1.298220    1.688269   -0.229184
     15          1           0       -0.366549    2.043791   -0.281185
 ---------------------------------------------------------------------
                    Distance matrix (angstroms):
                    1          2          3          4          5
     1  C    0.000000
     2  F    1.333328   0.000000
     3  F    1.334428   2.161624   0.000000
     4  F    1.334172   2.164856   2.164959   0.000000
     5  C    1.523123   2.346106   2.345984   2.358955   0.000000
     6  C    2.532762   3.428574   3.419273   2.741724   1.361309
     7  C    3.832564   4.602657   4.599378   4.179038   2.400032
     8  O    4.299905   4.919741   4.914403   4.951291   2.776916
     9  C    5.087000   5.886088   5.906994   5.118997   3.797994
    10  F    5.148566   6.105653   5.905639   4.870070   4.123215
    11  F    5.568403   6.132085   6.587210   5.536052   4.361326
    12  F    6.127843   6.959326   6.799728   6.278092   4.741585
    13  H    2.758637   3.708294   3.692124   2.418550   2.124813
    14  O    2.359397   2.767239   2.775966   3.508766   1.312032
    15  H    3.209829   3.669019   3.673134   4.209295   1.853567
                    6          7          8          9         10
     6  C    0.000000
     7  C    1.438379   0.000000
     8  O    2.362161   1.231372   0.000000
     9  C    2.555098   1.546595   2.386835   0.000000
    10  F    2.779540   2.381060   3.449261   1.339352   0.000000
    11  F    3.180548   2.353146   3.062557   1.338910   2.165808
    12  F    3.631680   2.371098   2.671853   1.323711   2.165870
    13  H    1.077764   2.199890   3.316721   2.753837   2.492342
    14  O    2.369647   2.792640   2.558090   4.335345   4.945975
    15  H    2.368203   2.230472   1.661144   3.745734   4.553237
                   11         12         13         14         15
    11  F    0.000000
    12  F    2.164785   0.000000
    13  H    3.272609   3.959740   0.000000
    14  O    4.901116   5.028986   3.331333   0.000000
    15  H    4.340513   4.266580   3.438941   0.998555   0.000000
 Stoichiometry    C5H2F6O2
 Framework group  C1[X(C5H2F6O2)]
 Deg. of freedom    39
 Full point group                 C1      NOp   1
 Largest Abelian subgroup         C1      NOp   1
 Largest concise Abelian subgroup C1      NOp   1
                         Standard orientation:                         
 ---------------------------------------------------------------------
 Center     Atomic      Atomic             Coordinates (Angstroms)
 Number     Number       Type             X           Y           Z
 ---------------------------------------------------------------------
      1          6           0        2.529765   -0.307752    0.001673
      2          9           0        3.217395    0.026814    1.093916
      3          9           0        3.243465    0.050534   -1.067420
      4          9           0        2.380867   -1.633481   -0.015248
      5          6           0        1.179258    0.396482   -0.007699
      6          6           0       -0.002416   -0.278422   -0.043962
      7          6           0       -1.218724    0.489386   -0.042451
      8          8           0       -1.261827    1.719979   -0.034630
      9          6           0       -2.557180   -0.284528   -0.003075
     10          9           0       -2.447601   -1.464332   -0.627511
     11          9           0       -2.887438   -0.522365    1.272481
     12          9           0       -3.528582    0.411678   -0.572185
     13          1           0       -0.021081   -1.355734   -0.068960
     14          8           0        1.295637    1.703062    0.019367
     15          1           0        0.363426    2.060780    0.007847
 ---------------------------------------------------------------------
 Rotational constants (GHZ):           1.7051133           0.3759891           0.3455172
 Standard basis: GTBas3 (6D, 7F)
 There are   413 symmetry adapted cartesian basis functions of A   symmetry.
 There are   374 symmetry adapted basis functions of A   symmetry.
   374 basis functions,   586 primitive gaussians,   413 cartesian basis functions
    51 alpha electrons       51 beta electrons
       nuclear repulsion energy       884.5137105283 Hartrees.
 NAtoms=   15 NActive=   15 NUniq=   15 SFac= 1.00D+00 NAtFMM=   60 NAOKFM=F Big=F
 Integral buffers will be    131072 words long.
 Raffenetti 2 integral format.
 Two-electron integral symmetry is turned on.
 One-electron integrals computed using PRISM.
 NBasis=   374 RedAO= T EigKep=  3.14D-04  NBF=   374
 NBsUse=   374 1.00D-06 EigRej= -1.00D+00 NBFU=   374
 Initial guess from the checkpoint file:  "/home/artemiy/opt/gaussian/scr/Gau-1864.chk"
 B after Tr=     0.000000    0.000000   -0.000000
         Rot=    1.000000    0.000377    0.000418    0.000027 Ang=   0.06 deg.
 ExpMin= 1.61D-01 ExpMax= 7.00D+03 ExpMxC= 1.05D+03 IAcc=2 IRadAn=         4 AccDes= 0.00D+00
 Harris functional with IExCor=  402 and IRadAn=       4 diagonalized for initial guess.
 HarFok:  IExCor=  402 AccDes= 0.00D+00 IRadAn=         4 IDoV= 1 UseB2=F ITyADJ=14
 ICtDFT=  3500011 ScaDFX=  1.000000  1.000000  1.000000  1.000000
 FoFCou: FMM=F IPFlag=           0 FMFlag=      100000 FMFlg1=           0
         NFxFlg=           0 DoJE=T BraDBF=F KetDBF=T FulRan=T
         wScrn=  0.000000 ICntrl=       500 IOpCl=  0 I1Cent=   200000004 NGrid=           0
         NMat0=    1 NMatS0=      1 NMatT0=    0 NMatD0=    1 NMtDS0=    0 NMtDT0=    0
 Petite list used in FoFCou.
 Requested convergence on RMS density matrix=1.00D-08 within 128 cycles.
 Requested convergence on MAX density matrix=1.00D-06.
 Requested convergence on             energy=1.00D-06.
 No special actions if energy rises.
 Integral accuracy reduced to 1.0D-05 until final iterations.
 Initial convergence to 1.0D-05 achieved.  Increase integral accuracy.
 SCF Done:  E(RB3LYP) =  -941.274272705     A.U. after   10 cycles
            NFock= 10  Conv=0.85D-08     -V/T= 2.0058
 Calling FoFJK, ICntrl=      2127 FMM=F ISym2X=0 I1Cent= 0 IOpClX= 0 NMat=1 NMatS=1 NMatT=0.
 ***** Axes restored to original set *****
 -------------------------------------------------------------------
 Center     Atomic                   Forces (Hartrees/Bohr)
 Number     Number              X              Y              Z
 -------------------------------------------------------------------
      1        6           0.000090159   -0.000249350    0.000449094
      2        9          -0.000108735    0.000091010   -0.000328432
      3        9           0.000113853    0.000043457   -0.000099788
      4        9           0.000071351   -0.000041424   -0.000016059
      5        6          -0.000568471    0.000099679   -0.000043200
      6        6           0.000634323   -0.000152502   -0.000028975
      7        6          -0.000622769   -0.000480979    0.000397515
      8        8          -0.000026267    0.000169834   -0.000294310
      9        6          -0.001079043   -0.000373372   -0.000275240
     10        9           0.000269398   -0.000172293    0.000002037
     11        9           0.000363020   -0.000171678   -0.000136915
     12        9           0.000752583    0.000472990    0.000304401
     13        1           0.000024667   -0.000074564    0.000041010
     14        8          -0.000790557   -0.000321583    0.000014393
     15        1           0.000876490    0.001160776    0.000014468
 -------------------------------------------------------------------
 Cartesian Forces:  Max     0.001160776 RMS     0.000407797

 GradGradGradGradGradGradGradGradGradGradGradGradGradGradGradGradGradGrad
 Berny optimization.
 Using GEDIIS/GDIIS optimizer.
 FormGI is forming the generalized inverse of G from B-inverse, IUseBI=4.
 Internal  Forces:  Max     0.001419251 RMS     0.000387637
 Search for a local minimum.
 Step number   4 out of a maximum of   68
 All quantities printed in internal units (Hartrees-Bohrs-Radians)
 Mixed Optimization -- En-DIIS/RFO-DIIS
 Update second derivatives using D2CorX and points    1    2    3    4
 DE= -1.04D-04 DEPred=-1.14D-04 R= 9.09D-01
 TightC=F SS=  1.41D+00  RLast= 5.00D-02 DXNew= 8.4853D-01 1.5006D-01
 Trust test= 9.09D-01 RLast= 5.00D-02 DXMaxT set to 5.05D-01
 ITU=  1  1  1  0
 Use linear search instead of GDIIS.
     Eigenvalues ---    0.00220   0.00419   0.00788   0.01441   0.01581
     Eigenvalues ---    0.02005   0.02555   0.02665   0.10718   0.10911
     Eigenvalues ---    0.11066   0.11118   0.15987   0.19631   0.21842
     Eigenvalues ---    0.22724   0.24988   0.25000   0.25000   0.25000
     Eigenvalues ---    0.25000   0.25000   0.25002   0.25795   0.27178
     Eigenvalues ---    0.29842   0.32478   0.34327   0.40056   0.42245
     Eigenvalues ---    0.43216   0.46875   0.50263   0.52613   0.55690
     Eigenvalues ---    0.55844   0.57050   0.63641   0.85315
 RFO step:  Lambda=-3.22424784D-05 EMin= 2.20009930D-03
[...]
    12  F   -0.033047  -0.002882   0.298882  -0.021689  -0.018976   9.031653
    13  H   -0.014817   0.002901   0.002671  -0.001163  -0.001012   0.000121
    14  O   -0.008306  -0.037411  -0.000753   0.000693   0.000266   0.000409
    15  H   -0.001970   0.043757   0.001084  -0.000171  -0.000021  -0.000215
              13         14         15
     1  C   -0.000910  -0.050761   0.004517
     2  F   -0.000170   0.001151  -0.000432
     3  F   -0.000062   0.001248  -0.000480
     4  F   -0.000836   0.003483  -0.000383
     5  C   -0.011965   0.399012  -0.020060
     6  C    0.390199  -0.076393  -0.011089
     7  C   -0.014817  -0.008306  -0.001970
     8  O    0.002901  -0.037411   0.043757
     9  C    0.002671  -0.000753   0.001084
    10  F   -0.001163   0.000693  -0.000171
    11  F   -0.001012   0.000266  -0.000021
    12  F    0.000121   0.000409  -0.000215
    13  H    0.375546   0.002741   0.000470
    14  O    0.002741   8.020604   0.297174
    15  H    0.000470   0.297174   0.234499
 Mulliken charges:
               1
     1  C    0.725099
     2  F   -0.262307
     3  F   -0.262143
     4  F   -0.289527
     5  C    0.422280
     6  C   -0.341664
     7  C    0.517933
     8  O   -0.561568
     9  C    0.705005
    10  F   -0.285694
    11  F   -0.267712
    12  F   -0.256151
    13  H    0.256285
    14  O   -0.553156
    15  H    0.453319
 Sum of Mulliken charges =  -0.00000
 Mulliken charges with hydrogens summed into heavy atoms:
               1
     1  C    0.725099
     2  F   -0.262307
     3  F   -0.262143
     4  F   -0.289527
     5  C    0.422280
     6  C   -0.085379
     7  C    0.517933
     8  O   -0.561568
     9  C    0.705005
    10  F   -0.285694
    11  F   -0.267712
    12  F   -0.256151
    14  O   -0.099837
 Electronic spatial extent (au):  <R**2>=           2844.3768
 Charge=             -0.0000 electrons
 Dipole moment (field-independent basis, Debye):
    X=              0.3017    Y=             -1.1060    Z=             -0.1066  Tot=              1.1513
 Quadrupole moment (field-independent basis, Debye-Ang):
   XX=            -79.7546   YY=            -72.6790   ZZ=            -70.4495
   XY=              0.9191   XZ=              0.1229   YZ=              0.0246
 Traceless Quadrupole moment (field-independent basis, Debye-Ang):
   XX=             -5.4602   YY=              1.6154   ZZ=              3.8448
   XY=              0.9191   XZ=              0.1229   YZ=              0.0246
 Octapole moment (field-independent basis, Debye-Ang**2):
  XXX=              1.4755  YYY=            -10.9769  ZZZ=             -0.7507  XYY=              2.7673
  XXY=             -9.8713  XXZ=              0.1838  XZZ=             -0.5481  YZZ=             -3.0600
  YYZ=              0.9546  XYZ=             -0.3874
 Hexadecapole moment (field-independent basis, Debye-Ang**3):
 XXXX=          -2352.2383 YYYY=           -437.1987 ZZZZ=           -190.7228 XXXY=              0.6652
 XXXZ=             -1.9519 YYYX=              6.8686 YYYZ=             -0.5367 ZZZX=              2.7178
 ZZZY=              0.3926 XXYY=           -476.2336 XXZZ=           -429.7672 YYZZ=           -104.7264
 XXYZ=              1.7349 YYXZ=             -1.9956 ZZXY=             -0.9819
 N-N= 8.840603639249D+02 E-N=-3.994528848537D+03  KE= 9.364902465532D+02
 1\1\GINC-ARTEMIY-VIRTUALBOX\SP\RHF\GFHFB2\C5H2F6O2\ARTEMIY\02-Dec-2021
 \0\\#N Geom=AllCheck Guess=TCheck SCRF=Check HF/GFHFB2 SCF=Tight\\Titl
 e Card Required\\0,1\C,0,-2.5349071677,-0.2904485258,0.123059196\F,0,-
 3.2463943127,-0.1583178019,-0.9975193364\F,0,-3.2226525737,0.263691214
 9,1.1227982681\F,0,-2.3883974694,-1.5912089285,0.3804113815\C,0,-1.182
 9436288,0.3950219409,-0.0286042941\C,0,-0.0019966435,-0.2744288433,0.0
 931041195\C,0,1.2126026609,0.4723673607,-0.0777832815\O,0,1.2552136094
 ,1.681756688,-0.3130138612\C,0,2.5618855801,-0.2805095016,0.0019193317
 \F,0,2.4231961299,-1.4810063432,0.5778475644\F,0,3.0403403611,-0.46551
 5508,-1.2324096372\F,0,3.447495367,0.4231718737,0.6984798409\H,0,0.013
 7622979,-1.3302389582,0.3071324165\O,0,-1.2955859471,1.6763338155,-0.2
 830041716\H,0,-0.3603162634,2.0256375167,-0.3622365365\\Version=ES64L-
 G16RevA.03\State=1-A\HF=-937.3040573\RMSD=6.989e-09\Dipole=-0.1165833,
 -0.4198631,0.1236873\Quadrupole=-4.0478699,1.2524132,2.7954567,-0.6380
 89,0.3784196,0.2960818\PG=C01 [X(C5H2F6O2)]\\@


 SACRED COWS MAKE GREAT HAMBURGERS -- ROBERT REISNER
 Diagonal vibrational polarizability:
        0.0000000       0.0000000       0.0000000
 
 Temperature=              298.150000 Pressure=                      1.000000
 E(ZPE)=                     0.076415 E(Thermal)=                    0.088061
 E(QCISD(T))=             -938.945064 E(Empiric)=                   -0.263986
 E(CCSD(T))=                -0.263986 E(Empiric)=                   -0.073087
 DE(Plus)=                  -0.617593 DE(2DF)=                      -1.050111
 E(Delta-G3XP)=             -0.106987 DE(HF)=                     -940.980412
 G4(0 K)=                 -940.968767 G4 Energy=                  -940.967822
 G4 Enthalpy=             -941.021812 G4 Free Energy=    
 1\1\GINC-ARTEMIY-VIRTUALBOX\Mixed\G4\G4\C5H2F6O2\ARTEMIY\02-Dec-2021\0
 \\# g4 geom=gic\\Title Card Required\\0,1\C,0,-2.5349071677,-0.2904485
 258,0.123059196\F,0,-3.2463943127,-0.1583178019,-0.9975193364\F,0,-3.2
 226525737,0.2636912149,1.1227982681\F,0,-2.3883974694,-1.5912089285,0.
 3804113815\C,0,-1.1829436288,0.3950219409,-0.0286042941\C,0,-0.0019966
 435,-0.2744288433,0.0931041195\C,0,1.2126026609,0.4723673607,-0.077783
 2815\O,0,1.2552136094,1.681756688,-0.3130138612\C,0,2.5618855801,-0.28
 05095016,0.0019193317\F,0,2.4231961299,-1.4810063432,0.5778475644\F,0,
 3.0403403611,-0.465515508,-1.2324096372\F,0,3.447495367,0.4231718737,0
 .6984798409\H,0,0.0137622979,-1.3302389582,0.3071324165\O,0,-1.2955859
 471,1.6763338155,-0.2830041716\H,0,-0.3603162634,2.0256375167,-0.36223
 65365\\Version=ES64L-G16RevA.03\State=1-A\MP2/GTBas1=-938.8604679\MP4/
 GTBas1=-938.9636927\CCSD(T)/G3Bas1=-938.9450639\MP2/GTBas2=-938.927391
 4\MP4/GTBas2=-939.0367797\MP2/GTBas3=-939.4411976\MP4/GTBas3=-939.5812
 855\HF/GTLargeXP=-937.2013996\MP2/GTLargeXP=-940.5582319\HF/GFHFB1=-93
 7.2862908\HF/GFHFB2=-937.3040573\G4=-940.9804118\FreqCoord=-4.79028029
 82,-0.5488681671,0.2325481776,-6.1347961433,-0.2991772861,-1.885038349
 8,-6.0899307589,0.4983041777,2.1217812198,-4.5134170938,-3.0069490818,
 0.7188733256,-2.2354394792,0.7464832815,-0.0540542818,-0.0037731094,-0
 .5185953545,0.1759412869,2.2914869269,0.8926449419,-0.1469890991,2.372
 0099495,3.1780595484,-0.5915104709,4.841262109,-0.5300861333,0.0036270
 113,4.5791770317,-2.7986963774,1.0919736386,5.7454106079,-0.8796968168
 ,-2.3289166877,6.5148220593,0.7996789448,1.3199356029,0.026006974,-2.5
 137873113,0.5803961511,-2.4483026108,3.1678118047,-0.5348003765,-0.680
 899056,3.8279001342,-0.6845278463\PG=C01 [X(C5H2F6O2)]\NImag=0\\0.5856
 7699,0.02072100,0.56961859,-0.00485730,-0.01114947,0.51740088,-0.16189
 016,-0.00138266,-0.10425723,0.16809834,0.00278162,-0.07716305,0.007520
 79,-0.02150810,0.08049261,-0.10200806,0.00421646,-0.20079186,0.1524821
 2,-0.02722730,0.31427138,-0.15737684,0.03788834,0.09613731,0.02409823,
 -0.00403795,-0.00917979,0.16169212,0.04077730,-0.09974569,-0.05079414,
 -0.00061906,0.01049590,-0.01596928,-0.07613433,0.13467277,0.09243513,-
 0.04742196,-0.18251090,0.00768614,-0.02159542,-0.08025709,-0.12999895,
 0.10411544,0.26630763,-0.08324707,-0.00217798,0.00054503,0.00070670,0.
 03463796,-0.02327111,0.00137309,0.03986267,0.00827027,0.08441490,-0.01
 125557,-0.27538868,0.04023523,0.02321453,-0.02269307,0.03739606,0.0281
 9915,-0.05406197,-0.02548008,-0.03619748,0.39462604,0.00234155,0.04012
 960,-0.08194399,-0.01966981,0.05007951,-0.02343748,0.00926387,-0.03842
 856,0.00723295,0.00713874,-0.06229973,0.09195821,-0.17992479,-0.048303
 24,0.01085227,-0.02652588,-0.00896446,-0.01661746,-0.02524621,-0.00179
 250,0.01903359,0.00790026,0.01035294,-0.00204931,0.73892094,-0.0473058
 1,-0.08252196,0.00407184,0.00430263,0.00652734,0.00613171,0.01955409,0
 .00433276,-0.01399879,-0.02633381,-0.04103914,0.01003783,-0.07482106,0
 .70626627,0.01067230,0.00402211,-0.06629197,-0.04129645,-0.00838339,-0
 .01338278,0.03679812,0.00094023,-0.01245692,0.00525122,0.00965427,0.00
 593871,0.00912230,-0.10052270,0.22004091,-0.00442742,0.01727669,-0.003
 13155,-0.00642708,-0.00207834,-0.00298623,-0.00644017,-0.00074154,0.00
 369910,-0.00548924,-0.00304258,0.00064536,-0.34525105,0.08845615,-0.01
 477338,0.66319148,-0.00571683,0.01551108,-0.00090461,-0.00486059,-0.00
 194238,-0.00306576,-0.00537804,-0.00050424,0.00394425,0.00014182,-0.00
 082801,0.00007291,0.12986112,-0.18639532,0.02312501,-0.06573032,0.7378
 8324,0.00131934,-0.00119624,0.01093141,0.00260185,0.00041162,0.0013369
 6,-0.00042574,0.00034502,-0.00014437,0.00006798,0.00009232,-0.00050352
 ,-0.02304109,0.02365539,-0.06767727,0.00487900,-0.12854057,0.12440724,
 -0.01283938,0.00066230,-0.00009201,0.00249085,-0.00019390,0.00049117,0
 .00253577,-0.00037420,-0.00044923,0.00281598,0.00157251,-0.00032637,-0
 .05730529,0.01802577,-0.00251003,-0.22169110,-0.06922199,0.01731480,0.
 57636154,-0.00720089,-0.00607677,0.00323273,0.00472020,0.00090168,0.00
 211491,0.00355718,-0.00014275,-0.00219986,0.00027440,0.00144741,-0.000
 25459,-0.01651925,0.06248244,-0.01157654,-0.01846264,-0.14289141,0.014
 46556,0.02881005,0.84009199,0.00196862,0.00325555,0.00884837,0.0017766
 8,0.00030865,-0.00017172,-0.00362561,-0.00033853,0.00098368,-0.0001614
 2,-0.00038266,0.00026381,0.00482051,-0.01240375,0.00569374,0.00647497,
 0.01546919,-0.07407489,-0.01568215,-0.11814837,0.24163704,0.00333862,0
 .00031758,-0.00013213,-0.00066156,-0.00031705,-0.00003413,-0.00064994,
 -0.00027639,0.00017021,-0.00130995,-0.00145703,0.00030598,-0.00437300,
 0.01826699,-0.00357066,0.01889778,-0.04272929,0.00850177,-0.11625119,-
 0.02567926,0.00632448,0.12642543,0.00798719,0.00080364,-0.00029140,-0.
 00270126,0.00007594,-0.00129655,-0.00265085,0.00060690,0.00124531,-0.0
 0144200,0.00055884,-0.00014781,0.02756696,-0.04313234,0.00775290,-0.06
 473390,-0.04562902,0.01400533,0.00320804,-0.60266221,0.10272101,0.0371
 4400,0.70270331,-0.00176198,-0.00035070,-0.00047459,0.00043215,-0.0000
 5646,0.00034173,0.00070124,-0.00002707,-0.00021518,0.00032544,-0.00010
 017,-0.00021429,-0.00575646,0.00808206,-0.00366947,0.01332164,0.013643
 25,0.01685395,0.00038124,0.10314370,-0.08663205,-0.00866901,-0.1284647
 9,0.06236806,-0.00644109,-0.00188947,0.00022666,0.00202094,0.00037240,
 0.00082516,0.00211327,0.00001621,-0.00097125,0.00144024,0.00112202,-0.
 00023060,-0.00843741,0.00649280,-0.00107273,-0.00578574,0.00872423,0.0
 0038766,-0.17060316,0.02866094,-0.00208825,0.01289917,0.00645661,-0.00
 293724,0.58543914,0.00157053,0.00388614,-0.00149322,-0.00137605,-0.000
 70349,-0.00047932,-0.00085493,-0.00049649,0.00052253,-0.00020070,-0.00
 160328,0.00035591,-0.00298807,-0.00630614,0.00263881,-0.01742757,0.015
 38955,0.00152098,0.03893603,-0.07044635,-0.00116862,0.02593320,-0.0449
 3950,0.00772603,-0.00568753,0.55498864,0.00000006,-0.00120486,-0.00178
 774,-0.00092001,0.00004197,-0.00061043,0.00106898,-0.00001686,-0.00062
 109,-0.00007405,0.00035275,-0.00012047,0.00042035,0.00222549,0.0041313
 7,0.00256326,-0.00011250,0.01479497,-0.00494422,-0.00200674,-0.0685028
 4,-0.00708310,0.01147189,0.00639647,0.00798529,-0.00213293,0.50675457,
 0.00185634,0.00029347,-0.00019188,-0.00061750,-0.00008840,-0.00026433,
 -0.00054562,0.00001875,0.00026679,-0.00046572,-0.00025494,0.00005385,0
 .00213417,-0.00034091,-0.00013000,-0.00541525,-0.00148480,0.00008560,0
 .01104730,0.02182139,-0.01004916,-0.00627426,0.00642375,-0.00048298,-0
 .08259022,0.00510036,-0.00340101,0.08095376,-0.00113013,-0.00163929,0.
 00082937,0.00053145,0.00030938,0.00003576,0.00035803,0.00024745,-0.000
 18367,0.00020757,0.00104235,-0.00025257,-0.00073719,0.00156143,-0.0005
 7391,0.00403933,-0.00060210,-0.00158400,-0.01747014,-0.02961941,0.0190
 0302,0.01292128,-0.00714122,0.00049423,0.01559653,-0.24196914,0.075964
 01,0.03295842,0.33455751,0.00022867,0.00054306,-0.00016107,0.00000031,
 -0.00008494,0.00011849,-0.00021284,-0.00005647,0.00015224,-0.00005456,
 -0.00032371,0.00012826,0.00006853,-0.00007420,0.00031397,-0.00072515,-
 0.00030361,-0.00032659,0.00678539,0.01254316,0.00213458,-0.00464177,0.
 00266067,-0.00000717,-0.00598424,0.07509759,-0.10583703,-0.01338108,-0
 .12431298,0.13821166,0.00211370,0.00128569,0.00079923,-0.00062639,-0.0
 0017365,-0.00038216,-0.00101867,-0.00006122,0.00040703,-0.00044343,-0.
 00050304,0.00002017,0.00155331,-0.00368548,-0.00066942,-0.00599378,0.0
 0163787,-0.00363664,-0.00683238,0.00555231,0.03845480,-0.00190298,0.00
 297791,-0.00353100,-0.12635668,0.02530732,0.08998580,0.00713802,-0.013
 28832,0.01802954,0.11111175,-0.00075614,-0.00092853,-0.00015617,0.0003
 3472,0.00015196,0.00018831,0.00039466,0.00009393,-0.00016483,0.0001508
 1,0.00037308,-0.00003545,0.00030423,0.00158831,0.00023180,0.00313650,-
 0.00237151,0.00110434,0.01033128,0.00373012,-0.01855037,-0.00027231,0.
 00203508,0.00126655,0.02150058,-0.08452985,-0.03547802,-0.02036811,0.0
 0080954,0.04807031,-0.01162827,0.08156170,-0.00116824,-0.00069489,-0.0
 0071977,0.00055817,0.00010756,0.00049039,0.00051292,0.00005906,-0.0001
 1320,0.00028119,0.00018095,0.00009598,0.00002425,0.00208981,0.00005455
 ,0.00387983,-0.00207794,0.00188257,0.01020997,0.00082406,-0.02081247,0
 .00095807,-0.00412360,0.00433855,0.08478268,-0.03780772,-0.22848547,0.
 02378206,0.03349605,-0.05209598,-0.11147504,0.04184800,0.35833399,0.00
 238000,0.00124453,-0.00105729,-0.00120491,-0.00024617,-0.00048550,-0.0
 0096567,0.00001077,0.00065994,-0.00052284,-0.00041481,0.00016692,0.000
 17857,-0.00454320,0.00218212,-0.00749909,0.00661023,0.00044961,-0.0309
 4401,-0.03006338,-0.02642096,0.00233863,0.00328554,0.00245871,-0.20595
 046,-0.06552918,-0.08679761,-0.00489570,-0.03512736,0.00035610,0.02140
 999,-0.00318275,-0.01178038,0.22536962,0.00016130,-0.00048127,-0.00005
 916,-0.00003322,0.00007305,-0.00001491,-0.00007265,0.00011576,0.000086
 40,-0.00005424,0.00025552,-0.00003151,0.00048309,-0.00039449,-0.000097
 41,0.00007102,-0.00028873,0.00020615,0.00264276,-0.00033148,-0.0000764
 4,0.00281298,0.00568700,0.00084577,-0.07528385,-0.12079737,-0.05050321
 ,-0.04835965,-0.05886629,-0.01289096,-0.00889848,-0.00256252,-0.032863
 45,0.12610721,0.17645174,0.00081089,0.00045844,-0.00033516,-0.00032500
 ,-0.00007925,-0.00007916,-0.00046033,0.00004051,0.00034782,-0.00016801
 ,-0.00010492,0.00007366,-0.00027797,-0.00196457,0.00023141,-0.00273769
 ,0.00296291,-0.00066481,-0.01428279,-0.01209054,-0.00009370,0.00216911
 ,0.00079205,0.00128233,-0.08233707,-0.04549784,-0.12862910,0.00445581,
 -0.00259032,0.01833271,-0.02748774,-0.03820852,-0.06262918,0.12061736,
 0.09556912,0.17257710,-0.00002609,0.00356827,-0.00073120,0.00036088,-0
 .00045244,0.00056419,0.00036048,-0.00063502,-0.00035947,-0.00168967,-0
 .00260531,0.00053641,0.00581100,0.02791774,-0.00571028,-0.05460594,0.0
 0340469,0.00006223,0.00957858,-0.02419858,0.00443770,-0.00621915,-0.00
 446696,0.00111597,-0.00023108,-0.00347841,0.00149039,-0.00193461,0.002
 87607,-0.00126269,0.00005193,0.00037154,-0.00053073,0.00057036,0.00079
 995,0.00017981,0.05525846,0.00038085,-0.00150962,-0.00041056,-0.000322
 13,0.00006209,-0.00022172,0.00014826,0.00013065,0.00002157,-0.00303763
 ,0.00043598,-0.00016695,-0.00088455,-0.01133161,0.00170694,0.00497563,
 -0.34526720,0.06476623,0.00313698,-0.00938806,0.00109595,-0.00170453,0
 .00062644,0.00099774,-0.00058772,-0.00138675,0.00040619,0.00290819,0.0
 0050398,-0.00012774,0.00008875,0.00006055,-0.00020230,0.00003923,0.000
 20964,0.00006686,-0.00557556,0.36378362,-0.00010442,-0.00037647,-0.003
 26527,-0.00110821,-0.00012679,-0.00033690,0.00113864,-0.00005879,-0.00
 043526,0.00062211,-0.00017872,-0.00049796,0.00006407,0.00131666,-0.002
 94562,-0.00046889,0.06490297,-0.03913176,-0.00078255,0.00176428,-0.003
 67158,0.00043313,0.00088414,0.00509704,0.00021705,0.00004901,-0.000050
 53,-0.00074688,0.00012970,-0.00065945,0.00033582,-0.00021817,-0.000520
 96,-0.00027266,-0.00006453,-0.00015549,0.00055009,-0.06925519,0.037526
 93,0.00746922,-0.03165103,0.00618959,0.00068976,-0.00013453,0.00121853
 ,0.00064537,-0.00056854,-0.00104090,-0.00638278,-0.01165061,0.00240847
 ,-0.12892630,0.01943025,-0.00321266,0.01721378,0.04066578,-0.00800419,
 -0.00844837,-0.02094792,0.00397427,-0.04362389,0.02120947,-0.00343352,
 0.00349157,0.00007773,-0.00041961,-0.00140233,0.00211376,-0.00078093,-
 0.00100704,0.00038256,0.00050542,-0.00038843,0.00035868,0.00008649,-0.
 00513435,0.00104356,-0.00000011,0.47242303,-0.00370895,-0.03935188,0.0
 0735040,-0.00091982,0.00271877,-0.00176354,-0.00113153,0.00349072,0.00
 128489,-0.00484302,-0.00182543,0.00071223,0.03184760,-0.37385959,0.062
 43088,0.05612936,-0.04278419,0.01165287,-0.03252218,-0.04270235,0.0084
 1895,-0.01672561,0.04100066,-0.00713733,-0.00639528,-0.00015367,0.0002
 6978,0.00153785,0.00103681,-0.00081328,0.00194460,-0.00023563,-0.00107
 454,0.00242788,0.00089853,0.00094104,0.00324580,0.00283891,0.00144869,
 0.05285312,0.52632687,0.00065469,0.00777806,-0.00355738,0.00099396,-0.
 00056360,0.00226172,-0.00054602,0.00006512,0.00154083,0.00104081,0.000
 76530,0.00124617,-0.00546584,0.06256301,-0.07123082,-0.01138368,0.0118
 5600,0.01582604,0.00654049,0.00775134,-0.00669583,0.00379651,-0.007501
 86,0.00666790,0.00132585,-0.00009111,-0.00043857,-0.00012594,-0.000313
 47,-0.00005345,-0.00033628,-0.00000405,0.00021403,-0.00054355,-0.00015
 590,-0.00011593,-0.00051502,0.00156192,0.00995517,-0.01480642,-0.09459
 487,0.07283720,0.00333797,0.00214650,-0.00029949,-0.00051222,0.0004030
 1,-0.00035240,-0.00057522,0.00051710,0.00019161,0.00089951,0.00292022,
 -0.00060524,0.01949168,-0.04541613,0.00891954,-0.03027716,0.00407613,-
 0.00056218,0.02008486,0.04967546,-0.01020450,0.01736630,-0.04026450,0.
 00783579,-0.00100851,0.00061727,0.00012548,0.00101162,-0.00384930,0.00
 157472,0.00080264,-0.00069932,-0.00054017,0.00012395,-0.00073489,-0.00
 024287,-0.00215081,-0.00060931,0.00012280,-0.30661924,-0.08373983,0.01
 937044,0.27802462,0.00269452,-0.00501271,0.00201835,0.00061937,0.00069
 326,-0.00004483,0.00016058,0.00076430,-0.00017579,-0.00098835,-0.00129
 963,0.00022918,-0.04540563,-0.03777796,0.00865103,-0.00186778,0.000720
 25,-0.00090500,0.01245671,-0.00439285,0.00079641,-0.00823456,-0.010593
 52,-0.00006282,0.00090154,-0.00093231,0.00072304,-0.00016537,-0.000231
 00,0.00007309,-0.00055597,0.00022377,0.00023896,-0.00061855,0.00003091
 ,-0.00029496,-0.00077179,0.00023138,-0.00021679,-0.07318229,-0.0773985
 3,0.01088410,0.11495757,0.13497465,-0.00053125,0.00199132,0.00465904,0
 .00104533,-0.00035294,0.00024675,-0.00117181,0.00012432,0.00018886,0.0
 0018636,0.00019309,-0.00022002,0.00880225,0.00879020,0.00125020,0.0007
 4339,-0.00097151,-0.00350992,-0.00265370,0.00043690,0.00109386,0.00147
 155,0.00029271,-0.01213328,-0.00012897,0.00075989,0.00300590,0.0001291
 5,-0.00014121,-0.00025117,-0.00051412,0.00010627,-0.00003303,0.0004671
 8,0.00005004,-0.00014251,0.00017258,-0.00023894,-0.00090835,0.01731558
 ,0.01087383,-0.02845708,-0.02533352,-0.02191395,0.03521076\\-0.0000045
 0,0.00001189,-0.00001835,0.00000102,-0.00000597,0.00001195,0.00000177,
 -0.00000610,-0.00000194,-0.00000427,-0.00000567,0.00000391,0.00001126,
 -0.00001683,0.00002322,-0.00000869,0.00000938,-0.00000529,-0.00000135,
 -0.00000354,-0.00000402,-0.00000771,0.00000131,-0.00000271,0.00001593,
 0.00000618,0.00002113,0.00000002,-0.00000241,0.00000206,0.00000146,0.0
 0000340,-0.00000895,-0.00001054,-0.00000708,-0.00001092,0.00000181,-0.
 00000178,-0.00000218,0.00001690,0.00001315,-0.00001005,-0.00001312,0.0
 0000406,0.00000213\\\@
 Job cpu time:       0 days 16 hours 42 minutes 16.7 seconds.
 Elapsed time:       0 days  2 hours 23 minutes 13.5 seconds.
 File lengths (MBytes):  RWF= 134448 Int=      0 D2E=      0 Chk=    119 Scr=      1
 Normal termination of Gaussian 16 at Thu Dec  2 08:20:33 2021.
