 Entering Gaussian System, Link 0=/home/arina/opt/gaussian/g16/g16
 Input=1-(1-Methyl-4-piperidinyl)-piperazine_G3MP2.gjf
 Output=1-(1-Methyl-4-piperidinyl)-piperazine_G3MP2.log
 Initial command:
 /home/arina/opt/gaussian/g16/l1.exe "/home/arina/opt/gaussian/scr/Gau-618735.inp" -scrdir="/home/arina/opt/gaussian/scr/"
 Entering Link 1 = /home/arina/opt/gaussian/g16/l1.exe PID=    618738.
  
 Copyright (c) 1988,1990,1992,1993,1995,1998,2003,2009,2016,
            Gaussian, Inc.  All Rights Reserved.
  
 This is part of the Gaussian(R) 16 program.  It is based on
 the Gaussian(R) 09 system (copyright 2009, Gaussian, Inc.),
 the Gaussian(R) 03 system (copyright 2003, Gaussian, Inc.),
 the Gaussian(R) 98 system (copyright 1998, Gaussian, Inc.),
 the Gaussian(R) 94 system (copyright 1995, Gaussian, Inc.),
 the Gaussian 92(TM) system (copyright 1992, Gaussian, Inc.),
 the Gaussian 90(TM) system (copyright 1990, Gaussian, Inc.),
 the Gaussian 88(TM) system (copyright 1988, Gaussian, Inc.),
 the Gaussian 86(TM) system (copyright 1986, Carnegie Mellon
 University), and the Gaussian 82(TM) system (copyright 1983,
 Carnegie Mellon University). Gaussian is a federally registered
 trademark of Gaussian, Inc.
  
 This software contains proprietary and confidential information,
 including trade secrets, belonging to Gaussian, Inc.
  
 This software is provided under written license and may be
 used, copied, transmitted, or stored only in accord with that
 written license.
  
 The following legend is applicable only to US Government
 contracts under FAR:
  
                    RESTRICTED RIGHTS LEGEND
  
 Use, reproduction and disclosure by the US Government is
 subject to restrictions as set forth in subparagraphs (a)
 and (c) of the Commercial Computer Software - Restricted
 Rights clause in FAR 52.227-19.
  
 Gaussian, Inc.
 340 Quinnipiac St., Bldg. 40, Wallingford CT 06492
  
  
 ---------------------------------------------------------------
 Warning -- This program may not be used in any manner that
 competes with the business of Gaussian, Inc. or will provide
 assistance to any competitor of Gaussian, Inc.  The licensee
 of this program is prohibited from giving any competitor of
 Gaussian, Inc. access to this program.  By using this program,
 the user acknowledges that Gaussian, Inc. is engaged in the
 business of creating and licensing software in the field of
 computational chemistry and represents and warrants to the
 licensee that it is not a competitor of Gaussian, Inc. and that
 it will not use this program in any manner prohibited above.
 ---------------------------------------------------------------
  

 Cite this work as:
 Gaussian 16, Revision A.03,
 M. J. Frisch, G. W. Trucks, H. B. Schlegel, G. E. Scuseria, 
 M. A. Robb, J. R. Cheeseman, G. Scalmani, V. Barone, 
 G. A. Petersson, H. Nakatsuji, X. Li, M. Caricato, A. V. Marenich, 
 J. Bloino, B. G. Janesko, R. Gomperts, B. Mennucci, H. P. Hratchian, 
 J. V. Ortiz, A. F. Izmaylov, J. L. Sonnenberg, D. Williams-Young, 
 F. Ding, F. Lipparini, F. Egidi, J. Goings, B. Peng, A. Petrone, 
 T. Henderson, D. Ranasinghe, V. G. Zakrzewski, J. Gao, N. Rega, 
 G. Zheng, W. Liang, M. Hada, M. Ehara, K. Toyota, R. Fukuda, 
 J. Hasegawa, M. Ishida, T. Nakajima, Y. Honda, O. Kitao, H. Nakai, 
 T. Vreven, K. Throssell, J. A. Montgomery, Jr., J. E. Peralta, 
 F. Ogliaro, M. J. Bearpark, J. J. Heyd, E. N. Brothers, K. N. Kudin, 
 V. N. Staroverov, T. A. Keith, R. Kobayashi, J. Normand, 
 K. Raghavachari, A. P. Rendell, J. C. Burant, S. S. Iyengar, 
 J. Tomasi, M. Cossi, J. M. Millam, M. Klene, C. Adamo, R. Cammi, 
 J. W. Ochterski, R. L. Martin, K. Morokuma, O. Farkas, 
 J. B. Foresman, and D. J. Fox, Gaussian, Inc., Wallingford CT, 2016.
 
 ******************************************
 Gaussian 16:  ES64L-G16RevA.03 25-Dec-2016
                26-Jan-2023 
 ******************************************
 %mem=8GB
 %nprocshared=6
 Will use up to    6 processors via shared memory.
 ----------------
 # g3mp2 geom=gic
 ----------------
 1/18=20,19=15,38=1,145=2/1,3;
 2/9=110,12=2,17=6,18=5,40=1/2;
 3/5=33,7=1,11=9,25=1,30=1,71=1/1,2,3;
 4//1;
 5/5=2,38=5/2;
 6/7=2,8=2,9=2,10=2,28=1/1;
 7//1,2,3,16;
 1/18=20,19=15,145=2/3(2);
 2/9=110/2;
 99//99;
 2/9=110/2;
 3/5=33,7=1,11=9,25=1,30=1,71=1/1,2,3;
 4/5=5,16=3,69=1/1;
 5/5=2,38=5/2;
 7//1,2,3,16;
 1/18=20,19=15,145=2/3(-5);
 2/9=110/2;
 6/7=2,8=2,9=2,10=2,19=2,28=1/1;
 99/9=1/99;
 -------------------
 CAS 23995-88-2
 -------------------
 Symbolic Z-matrix:
 Charge =  0 Multiplicity = 1
 C                    -3.05953   1.1451   -0.65049 
 C                    -1.60736   0.70437  -0.87625 
 C                    -1.93519  -1.12636   0.59749 
 C                    -3.39005  -0.69037   0.8154 
 H                    -1.57248   0.03216  -1.75498 
 H                    -0.98958   1.57765  -1.08329 
 H                    -3.09212   1.84544   0.18799 
 H                    -3.44604   1.64267  -1.54254 
 H                    -1.89911  -1.85759  -0.23355 
 H                    -1.56044  -1.6152    1.49941 
 H                    -4.01928  -1.56105   1.01255 
 H                    -3.43255  -0.02034   1.678 
 C                     0.95274  -0.89209  -0.78275 
 C                     1.06142   1.13724   0.63392 
 C                     2.43624  -1.10885  -0.50479 
 H                     0.85066  -0.27886  -1.67875 
 H                     0.4714   -1.85642  -0.95855 
 C                     2.53996   0.84382   0.86456 
 H                     0.97219   1.77647  -0.24399 
 H                     0.64272   1.66277   1.4924 
 H                     2.9052   -1.59428  -1.3654 
 H                     2.55272  -1.77935   0.36901 
 H                     3.08435   1.78195   1.00178 
 H                     2.65939   0.24228   1.7862 
 N                     3.10062   0.16219  -0.28753 
 N                    -3.93035   0.03219  -0.3206 
 H                    -3.98435  -0.59595  -1.11995 
 C                     4.53257   0.00349  -0.17058 
 H                     4.91568  -0.46352  -1.07705 
 H                     4.99277   0.98497  -0.06424 
 H                     4.82537  -0.61595   0.69313 
 C                     0.30569  -0.1742    0.4108 
 H                     0.45513  -0.7966    1.30349 
 N                    -1.12875   0.04811   0.32594 
 
 Initializing the GIC definitions file.

 GradGradGradGradGradGradGradGradGradGradGradGradGradGradGradGradGradGrad
 Berny optimization.
 Initialization pass.
                           ----------------------------
                           !    Initial Parameters    !
                           ! (Angstroms and Degrees)  !
 --------------------------                            --------------------------
 ! Name  Definition              Value          Derivative Info.                !
 --------------------------------------------------------------------------------
 ! R1    R(1,2)                  1.5343         estimate D2E/DX2                !
 ! R2    R(1,7)                  1.093          estimate D2E/DX2                !
 ! R3    R(1,8)                  1.0921         estimate D2E/DX2                !
 ! R4    R(1,26)                 1.4511         estimate D2E/DX2                !
 ! R5    R(2,5)                  1.1069         estimate D2E/DX2                !
 ! R6    R(2,6)                  1.0896         estimate D2E/DX2                !
 ! R7    R(2,34)                 1.4509         estimate D2E/DX2                !
 ! R8    R(3,4)                  1.5343         estimate D2E/DX2                !
 ! R9    R(3,9)                  1.1075         estimate D2E/DX2                !
 ! R10   R(3,10)                 1.0922         estimate D2E/DX2                !
 ! R11   R(3,34)                 1.4503         estimate D2E/DX2                !
 ! R12   R(4,11)                 1.0922         estimate D2E/DX2                !
 ! R13   R(4,12)                 1.0931         estimate D2E/DX2                !
 ! R14   R(4,26)                 1.4507         estimate D2E/DX2                !
 ! R15   R(13,15)                1.5248         estimate D2E/DX2                !
 ! R16   R(13,16)                1.0905         estimate D2E/DX2                !
 ! R17   R(13,17)                1.092          estimate D2E/DX2                !
 ! R18   R(13,32)                1.5358         estimate D2E/DX2                !
 ! R19   R(14,18)                1.5249         estimate D2E/DX2                !
 ! R20   R(14,19)                1.0896         estimate D2E/DX2                !
 ! R21   R(14,20)                1.0902         estimate D2E/DX2                !
 ! R22   R(14,32)                1.53           estimate D2E/DX2                !
 ! R23   R(15,21)                1.0937         estimate D2E/DX2                !
 ! R24   R(15,22)                1.1075         estimate D2E/DX2                !
 ! R25   R(15,25)                1.4506         estimate D2E/DX2                !
 ! R26   R(18,23)                1.0933         estimate D2E/DX2                !
 ! R27   R(18,24)                1.107          estimate D2E/DX2                !
 ! R28   R(18,25)                1.4513         estimate D2E/DX2                !
 ! R29   R(25,28)                1.4454         estimate D2E/DX2                !
 ! R30   R(26,27)                1.0181         estimate D2E/DX2                !
 ! R31   R(28,29)                1.0893         estimate D2E/DX2                !
 ! R32   R(28,30)                1.0892         estimate D2E/DX2                !
 ! R33   R(28,31)                1.1025         estimate D2E/DX2                !
 ! R34   R(32,33)                1.0985         estimate D2E/DX2                !
 ! R35   R(32,34)                1.454          estimate D2E/DX2                !
 ! A1    A(2,1,7)              108.9761         estimate D2E/DX2                !
 ! A2    A(2,1,8)              110.2219         estimate D2E/DX2                !
 ! A3    A(2,1,26)             112.4041         estimate D2E/DX2                !
 ! A4    A(7,1,8)              108.913          estimate D2E/DX2                !
 ! A5    A(7,1,26)             107.4052         estimate D2E/DX2                !
 ! A6    A(8,1,26)             108.8275         estimate D2E/DX2                !
 ! A7    A(1,2,5)              108.7283         estimate D2E/DX2                !
 ! A8    A(1,2,6)              109.5349         estimate D2E/DX2                !
 ! A9    A(1,2,34)             108.677          estimate D2E/DX2                !
 ! A10   A(5,2,6)              108.5432         estimate D2E/DX2                !
 ! A11   A(5,2,34)             111.8831         estimate D2E/DX2                !
 ! A12   A(6,2,34)             109.448          estimate D2E/DX2                !
 ! A13   A(4,3,9)              108.9699         estimate D2E/DX2                !
 ! A14   A(4,3,10)             109.5872         estimate D2E/DX2                !
 ! A15   A(4,3,34)             108.8877         estimate D2E/DX2                !
 ! A16   A(9,3,10)             108.2371         estimate D2E/DX2                !
 ! A17   A(9,3,34)             112.0892         estimate D2E/DX2                !
 ! A18   A(10,3,34)            109.0433         estimate D2E/DX2                !
 ! A19   A(3,4,11)             110.2053         estimate D2E/DX2                !
 ! A20   A(3,4,12)             108.8522         estimate D2E/DX2                !
 ! A21   A(3,4,26)             112.5484         estimate D2E/DX2                !
 ! A22   A(11,4,12)            108.8936         estimate D2E/DX2                !
 ! A23   A(11,4,26)            108.8953         estimate D2E/DX2                !
 ! A24   A(12,4,26)            107.3475         estimate D2E/DX2                !
 ! A25   A(15,13,16)           108.7103         estimate D2E/DX2                !
 ! A26   A(15,13,17)           109.4297         estimate D2E/DX2                !
 ! A27   A(15,13,32)           109.5533         estimate D2E/DX2                !
 ! A28   A(16,13,17)           108.8468         estimate D2E/DX2                !
 ! A29   A(16,13,32)           109.6474         estimate D2E/DX2                !
 ! A30   A(17,13,32)           110.621          estimate D2E/DX2                !
 ! A31   A(18,14,19)           108.3091         estimate D2E/DX2                !
 ! A32   A(18,14,20)           110.2453         estimate D2E/DX2                !
 ! A33   A(18,14,32)           109.6369         estimate D2E/DX2                !
 ! A34   A(19,14,20)           108.6755         estimate D2E/DX2                !
 ! A35   A(19,14,32)           110.1761         estimate D2E/DX2                !
 ! A36   A(20,14,32)           109.7753         estimate D2E/DX2                !
 ! A37   A(13,15,21)           109.683          estimate D2E/DX2                !
 ! A38   A(13,15,22)           109.4028         estimate D2E/DX2                !
 ! A39   A(13,15,25)           110.3864         estimate D2E/DX2                !
 ! A40   A(21,15,22)           107.8795         estimate D2E/DX2                !
 ! A41   A(21,15,25)           108.0813         estimate D2E/DX2                !
 ! A42   A(22,15,25)           111.3537         estimate D2E/DX2                !
 ! A43   A(14,18,23)           109.6739         estimate D2E/DX2                !
 ! A44   A(14,18,24)           109.5769         estimate D2E/DX2                !
 ! A45   A(14,18,25)           110.174          estimate D2E/DX2                !
 ! A46   A(23,18,24)           107.9425         estimate D2E/DX2                !
 ! A47   A(23,18,25)           108.0767         estimate D2E/DX2                !
 ! A48   A(24,18,25)           111.3461         estimate D2E/DX2                !
 ! A49   A(15,25,18)           110.7017         estimate D2E/DX2                !
 ! A50   A(15,25,28)           111.694          estimate D2E/DX2                !
 ! A51   A(18,25,28)           111.7183         estimate D2E/DX2                !
 ! A52   A(1,26,4)             109.6645         estimate D2E/DX2                !
 ! A53   A(1,26,27)            109.0584         estimate D2E/DX2                !
 ! A54   A(4,26,27)            109.1043         estimate D2E/DX2                !
 ! A55   A(25,28,29)           109.1571         estimate D2E/DX2                !
 ! A56   A(25,28,30)           109.1187         estimate D2E/DX2                !
 ! A57   A(25,28,31)           112.8414         estimate D2E/DX2                !
 ! A58   A(29,28,30)           108.6002         estimate D2E/DX2                !
 ! A59   A(29,28,31)           108.5205         estimate D2E/DX2                !
 ! A60   A(30,28,31)           108.5179         estimate D2E/DX2                !
 ! A61   A(13,32,14)           107.8126         estimate D2E/DX2                !
 ! A62   A(13,32,33)           108.0231         estimate D2E/DX2                !
 ! A63   A(13,32,34)           116.2153         estimate D2E/DX2                !
 ! A64   A(14,32,33)           107.4557         estimate D2E/DX2                !
 ! A65   A(14,32,34)           111.3927         estimate D2E/DX2                !
 ! A66   A(33,32,34)           105.5615         estimate D2E/DX2                !
 ! A67   A(2,34,3)             109.7558         estimate D2E/DX2                !
 ! A68   A(2,34,32)            116.292          estimate D2E/DX2                !
 ! A69   A(3,34,32)            114.444          estimate D2E/DX2                !
 ! D1    D(7,1,2,5)           -177.4178         estimate D2E/DX2                !
 ! D2    D(7,1,2,6)            -58.9543         estimate D2E/DX2                !
 ! D3    D(7,1,2,34)            60.5745         estimate D2E/DX2                !
 ! D4    D(8,1,2,5)            -57.9496         estimate D2E/DX2                !
 ! D5    D(8,1,2,6)             60.5139         estimate D2E/DX2                !
 ! D6    D(8,1,2,34)          -179.9573         estimate D2E/DX2                !
 ! D7    D(26,1,2,5)            63.6417         estimate D2E/DX2                !
 ! D8    D(26,1,2,6)          -177.8948         estimate D2E/DX2                !
 ! D9    D(26,1,2,34)          -58.366          estimate D2E/DX2                !
 ! D10   D(2,1,26,4)            54.2526         estimate D2E/DX2                !
 ! D11   D(2,1,26,27)          -65.1648         estimate D2E/DX2                !
 ! D12   D(7,1,26,4)           -65.6042         estimate D2E/DX2                !
 ! D13   D(7,1,26,27)          174.9785         estimate D2E/DX2                !
 ! D14   D(8,1,26,4)           176.6356         estimate D2E/DX2                !
 ! D15   D(8,1,26,27)           57.2182         estimate D2E/DX2                !
 ! D16   D(1,2,34,3)            61.2051         estimate D2E/DX2                !
 ! D17   D(1,2,34,32)         -166.8929         estimate D2E/DX2                !
 ! D18   D(5,2,34,3)           -58.8623         estimate D2E/DX2                !
 ! D19   D(5,2,34,32)           73.0396         estimate D2E/DX2                !
 ! D20   D(6,2,34,3)          -179.2118         estimate D2E/DX2                !
 ! D21   D(6,2,34,32)          -47.3099         estimate D2E/DX2                !
 ! D22   D(9,3,4,11)            56.9204         estimate D2E/DX2                !
 ! D23   D(9,3,4,12)           176.2786         estimate D2E/DX2                !
 ! D24   D(9,3,4,26)           -64.8453         estimate D2E/DX2                !
 ! D25   D(10,3,4,11)          -61.3454         estimate D2E/DX2                !
 ! D26   D(10,3,4,12)           58.0128         estimate D2E/DX2                !
 ! D27   D(10,3,4,26)          176.8889         estimate D2E/DX2                !
 ! D28   D(34,3,4,11)          179.46           estimate D2E/DX2                !
 ! D29   D(34,3,4,12)          -61.1818         estimate D2E/DX2                !
 ! D30   D(34,3,4,26)           57.6943         estimate D2E/DX2                !
 ! D31   D(4,3,34,2)           -60.9005         estimate D2E/DX2                !
 ! D32   D(4,3,34,32)          166.2373         estimate D2E/DX2                !
 ! D33   D(9,3,34,2)            59.7394         estimate D2E/DX2                !
 ! D34   D(9,3,34,32)          -73.1228         estimate D2E/DX2                !
 ! D35   D(10,3,34,2)          179.5661         estimate D2E/DX2                !
 ! D36   D(10,3,34,32)          46.7039         estimate D2E/DX2                !
 ! D37   D(3,4,26,1)           -53.9001         estimate D2E/DX2                !
 ! D38   D(3,4,26,27)           65.4892         estimate D2E/DX2                !
 ! D39   D(11,4,26,1)         -176.4064         estimate D2E/DX2                !
 ! D40   D(11,4,26,27)         -57.0171         estimate D2E/DX2                !
 ! D41   D(12,4,26,1)           65.8519         estimate D2E/DX2                !
 ! D42   D(12,4,26,27)        -174.7588         estimate D2E/DX2                !
 ! D43   D(16,13,15,21)        -58.5855         estimate D2E/DX2                !
 ! D44   D(16,13,15,22)       -176.7298         estimate D2E/DX2                !
 ! D45   D(16,13,15,25)         60.4            estimate D2E/DX2                !
 ! D46   D(17,13,15,21)         60.1735         estimate D2E/DX2                !
 ! D47   D(17,13,15,22)        -57.9708         estimate D2E/DX2                !
 ! D48   D(17,13,15,25)        179.159          estimate D2E/DX2                !
 ! D49   D(32,13,15,21)       -178.3876         estimate D2E/DX2                !
 ! D50   D(32,13,15,22)         63.4681         estimate D2E/DX2                !
 ! D51   D(32,13,15,25)        -59.402          estimate D2E/DX2                !
 ! D52   D(15,13,32,14)         57.0714         estimate D2E/DX2                !
 ! D53   D(15,13,32,33)        -58.7695         estimate D2E/DX2                !
 ! D54   D(15,13,32,34)       -177.1073         estimate D2E/DX2                !
 ! D55   D(16,13,32,14)        -62.1549         estimate D2E/DX2                !
 ! D56   D(16,13,32,33)       -177.9958         estimate D2E/DX2                !
 ! D57   D(16,13,32,34)         63.6665         estimate D2E/DX2                !
 ! D58   D(17,13,32,14)        177.7899         estimate D2E/DX2                !
 ! D59   D(17,13,32,33)         61.949          estimate D2E/DX2                !
 ! D60   D(17,13,32,34)        -56.3887         estimate D2E/DX2                !
 ! D61   D(19,14,18,23)         58.4877         estimate D2E/DX2                !
 ! D62   D(19,14,18,24)        176.8069         estimate D2E/DX2                !
 ! D63   D(19,14,18,25)        -60.3564         estimate D2E/DX2                !
 ! D64   D(20,14,18,23)        -60.298          estimate D2E/DX2                !
 ! D65   D(20,14,18,24)         58.0212         estimate D2E/DX2                !
 ! D66   D(20,14,18,25)       -179.1421         estimate D2E/DX2                !
 ! D67   D(32,14,18,23)        178.7394         estimate D2E/DX2                !
 ! D68   D(32,14,18,24)        -62.9414         estimate D2E/DX2                !
 ! D69   D(32,14,18,25)         59.8953         estimate D2E/DX2                !
 ! D70   D(18,14,32,13)        -57.3549         estimate D2E/DX2                !
 ! D71   D(18,14,32,33)         58.8576         estimate D2E/DX2                !
 ! D72   D(18,14,32,34)        174.022          estimate D2E/DX2                !
 ! D73   D(19,14,32,13)         61.7531         estimate D2E/DX2                !
 ! D74   D(19,14,32,33)        177.9656         estimate D2E/DX2                !
 ! D75   D(19,14,32,34)        -66.8699         estimate D2E/DX2                !
 ! D76   D(20,14,32,13)       -178.6013         estimate D2E/DX2                !
 ! D77   D(20,14,32,33)        -62.3888         estimate D2E/DX2                !
 ! D78   D(20,14,32,34)         52.7757         estimate D2E/DX2                !
 ! D79   D(13,15,25,18)         61.3023         estimate D2E/DX2                !
 ! D80   D(13,15,25,28)       -173.5224         estimate D2E/DX2                !
 ! D81   D(21,15,25,18)       -178.7426         estimate D2E/DX2                !
 ! D82   D(21,15,25,28)        -53.5673         estimate D2E/DX2                !
 ! D83   D(22,15,25,18)        -60.4212         estimate D2E/DX2                !
 ! D84   D(22,15,25,28)         64.754          estimate D2E/DX2                !
 ! D85   D(14,18,25,15)        -61.4194         estimate D2E/DX2                !
 ! D86   D(14,18,25,28)        173.419          estimate D2E/DX2                !
 ! D87   D(23,18,25,15)        178.7646         estimate D2E/DX2                !
 ! D88   D(23,18,25,28)         53.603          estimate D2E/DX2                !
 ! D89   D(24,18,25,15)         60.3736         estimate D2E/DX2                !
 ! D90   D(24,18,25,28)        -64.788          estimate D2E/DX2                !
 ! D91   D(15,25,28,29)         58.3529         estimate D2E/DX2                !
 ! D92   D(15,25,28,30)        176.8945         estimate D2E/DX2                !
 ! D93   D(15,25,28,31)        -62.3914         estimate D2E/DX2                !
 ! D94   D(18,25,28,29)       -177.0375         estimate D2E/DX2                !
 ! D95   D(18,25,28,30)        -58.4959         estimate D2E/DX2                !
 ! D96   D(18,25,28,31)         62.2183         estimate D2E/DX2                !
 ! D97   D(13,32,34,2)         -52.5392         estimate D2E/DX2                !
 ! D98   D(13,32,34,3)          77.1563         estimate D2E/DX2                !
 ! D99   D(14,32,34,2)          71.4546         estimate D2E/DX2                !
 ! D100  D(14,32,34,3)        -158.85           estimate D2E/DX2                !
 ! D101  D(33,32,34,2)        -172.2168         estimate D2E/DX2                !
 ! D102  D(33,32,34,3)         -42.5213         estimate D2E/DX2                !
 --------------------------------------------------------------------------------
 Trust Radius=3.00D-01 FncErr=1.00D-07 GrdErr=1.00D-07 EigMax=2.50D+02 EigMin=1.00D-04
 Number of steps in this run=    204 maximum allowed number of steps=    204.
 GradGradGradGradGradGradGradGradGradGradGradGradGradGradGradGradGradGrad

                          Input orientation:                          
 ---------------------------------------------------------------------
 Center     Atomic      Atomic             Coordinates (Angstroms)
 Number     Number       Type             X           Y           Z
 ---------------------------------------------------------------------
      1          6           0       -3.059526    1.145099   -0.650486
      2          6           0       -1.607358    0.704368   -0.876247
      3          6           0       -1.935189   -1.126362    0.597489
      4          6           0       -3.390053   -0.690367    0.815404
      5          1           0       -1.572480    0.032165   -1.754981
      6          1           0       -0.989578    1.577650   -1.083286
      7          1           0       -3.092122    1.845440    0.187995
      8          1           0       -3.446040    1.642670   -1.542540
      9          1           0       -1.899105   -1.857595   -0.233545
     10          1           0       -1.560444   -1.615202    1.499413
     11          1           0       -4.019285   -1.561047    1.012549
     12          1           0       -3.432555   -0.020338    1.677997
     13          6           0        0.952741   -0.892094   -0.782754
     14          6           0        1.061421    1.137240    0.633919
     15          6           0        2.436238   -1.108855   -0.504791
     16          1           0        0.850658   -0.278864   -1.678750
     17          1           0        0.471401   -1.856420   -0.958548
     18          6           0        2.539964    0.843823    0.864562
     19          1           0        0.972188    1.776466   -0.243987
     20          1           0        0.642716    1.662772    1.492404
     21          1           0        2.905200   -1.594276   -1.365403
     22          1           0        2.552723   -1.779350    0.369008
     23          1           0        3.084349    1.781953    1.001778
     24          1           0        2.659389    0.242280    1.786198
     25          7           0        3.100623    0.162189   -0.287526
     26          7           0       -3.930348    0.032192   -0.320596
     27          1           0       -3.984348   -0.595952   -1.119948
     28          6           0        4.532566    0.003490   -0.170576
     29          1           0        4.915677   -0.463522   -1.077048
     30          1           0        4.992770    0.984971   -0.064242
     31          1           0        4.825368   -0.615953    0.693130
     32          6           0        0.305688   -0.174196    0.410802
     33          1           0        0.455131   -0.796600    1.303493
     34          7           0       -1.128754    0.048109    0.325937
 ---------------------------------------------------------------------
                    Distance matrix (angstroms):
                    1          2          3          4          5
     1  C    0.000000
     2  C    1.534277   0.000000
     3  C    2.825087   2.372961   0.000000
     4  C    2.372134   2.825769   1.534343   0.000000
     5  H    2.160981   1.106909   2.647236   3.229938   0.000000
     6  H    2.158495   1.089559   3.321275   3.809357   1.783108
     7  H    1.092973   2.153875   3.215242   2.629205   3.061442
     8  H    1.092122   2.169127   3.811815   3.317544   2.479735
     9  H    3.246011   2.657411   1.107530   2.164634   2.447987
    10  H    3.806386   3.320597   1.092183   2.161171   3.647607
    11  H    3.318139   3.810124   2.169028   1.092191   4.022983
    12  H    2.630443   3.221910   2.152415   1.093074   3.904865
    13  C    4.501770   3.018532   3.209375   4.631917   2.859409
    14  C    4.316476   3.096831   3.755648   4.815465   3.723637
    15  C    5.941798   4.447069   4.508292   5.988632   4.351404
    16  H    4.286553   2.766333   3.696006   4.936980   2.444207
    17  H    4.644509   3.299340   2.957348   4.406519   2.894565
    18  C    5.808651   4.500016   4.896932   6.125460   4.942974
    19  H    4.101046   2.864123   4.193725   5.122179   3.435261
    20  H    4.308893   3.404684   3.902016   4.717925   4.255758
    21  H    6.602518   5.087850   5.244164   6.723331   4.779822
    22  H    6.410079   5.002578   4.540919   6.058196   4.980985
    23  H    6.393963   5.167232   5.815282   6.932892   5.687490
    24  H    6.281600   5.050472   4.939266   6.197420   5.522030
    25  N    6.248623   4.775524   5.272856   6.638688   4.899819
    26  N    1.451110   2.481301   2.483101   1.450692   2.759892
    27  H    2.026561   2.720350   2.725799   2.026743   2.571945
    28  C    7.692429   6.219957   6.610472   8.013831   6.307357
    29  H    8.146992   6.629801   7.083628   8.521618   6.542284
    30  H    8.075196   6.655807   7.272704   8.593733   6.846090
    31  H    8.190126   6.751752   6.780471   8.216668   6.880826
    32  C    3.767165   2.467410   2.441925   3.753483   2.874145
    33  H    4.465539   3.355298   2.514122   3.877493   3.761956
    34  N    2.425834   1.450856   1.450330   2.428661   2.127760
                    6          7          8          9         10
     6  H    0.000000
     7  H    2.471549   0.000000
     8  H    2.499870   1.777955   0.000000
     9  H    3.653793   3.913240   4.044543   0.000000
    10  H    4.146145   4.005233   4.839698   1.782299   0.000000
    11  H    4.839738   3.625420   4.137739   2.477065   2.507164
    12  H    4.018257   2.411873   3.624588   3.062838   2.465823
    13  C    3.156351   4.979694   5.133379   3.060531   3.470917
    14  C    2.710968   4.237017   5.030869   4.299564   3.898614
    15  C    4.391831   6.306391   6.576398   4.407878   4.499631
    16  H    2.680987   4.852104   4.708765   3.484567   4.207128
    17  H    3.734013   5.264695   5.284981   2.478896   3.198147
    18  C    4.097595   5.760327   6.501119   5.311199   4.823192
    19  H    2.143006   4.087784   4.607047   4.631504   4.577890
    20  H    3.050542   3.960285   5.092074   4.672551   3.949566
    21  H    5.030905   7.086082   7.130740   4.942852   5.305618
    22  H    5.091807   6.710897   7.165849   4.493102   4.268829
    23  H    4.581061   6.230174   7.009918   6.293421   5.776020
    24  H    4.830332   6.180959   7.093508   5.410056   4.619467
    25  N    4.400739   6.435024   6.828300   5.392562   5.298850
    26  N    3.408558   2.061348   2.078783   2.775756   3.412153
    27  H    3.700613   2.909841   2.340894   2.593393   3.711500
    28  C    5.814215   7.852211   8.259986   6.695820   6.521794
    29  H    6.248076   8.429500   8.635453   7.006867   7.064322
    30  H    6.097393   8.134464   8.592523   7.456996   7.221532
    31  H    6.463834   8.306639   8.860914   6.900648   6.513615
    32  C    2.641775   3.959000   4.603478   2.847828   2.596925
    33  H    3.663462   4.561546   5.410090   3.005100   2.184270
    34  N    2.084412   2.665378   3.376929   2.130297   2.080866
                   11         12         13         14         15
    11  H    0.000000
    12  H    1.777880   0.000000
    13  C    5.328381   5.103535   0.000000
    14  C    5.765213   4.756670   2.477291   0.000000
    15  C    6.646846   6.355483   1.524799   2.869098   0.000000
    16  H    5.709941   5.447981   1.090541   2.719965   2.140357
    17  H    4.913117   5.056029   1.092024   3.441813   2.150659
    18  C    6.987778   6.089289   2.871643   1.524920   2.387223
    19  H    6.134547   5.130720   2.722472   1.089629   3.246003
    20  H    5.688367   4.413064   3.435083   1.090181   3.858422
    21  H    7.321492   7.204631   2.155142   3.854606   1.093715
    22  H    6.607048   6.374255   2.161879   3.286436   1.107545
    23  H    7.850948   6.795261   3.857309   2.154812   3.323638
    24  H    6.960977   6.098562   3.286178   2.163840   2.669080
    25  N    7.439948   6.824882   2.443391   2.440928   1.450574
    26  N    2.079326   2.060323   4.991238   5.200961   6.470652
    27  H    2.340977   2.909348   4.957443   5.616030   6.470348
    28  C    8.773923   8.176854   3.740586   3.739178   2.396582
    29  H    9.241456   8.802253   3.996892   4.510558   2.625176
    30  H    9.426495   8.662110   4.512368   3.995763   3.333773
    31  H    8.900737   8.337746   4.153520   4.152648   2.717703
    32  C    4.581576   3.950179   1.535783   1.529961   2.500228
    33  H    4.548562   3.982077   2.146895   2.134398   2.700403
    34  N    3.378755   2.672125   2.538857   2.465345   3.838989
                   16         17         18         19         20
    16  H    0.000000
    17  H    1.775164   0.000000
    18  C    3.253093   3.859274   0.000000
    19  H    2.509520   3.736207   2.134626   0.000000
    20  H    3.724165   4.291995   2.159726   1.771026   0.000000
    21  H    2.459601   2.481457   3.324224   4.044257   4.888175
    22  H    3.056434   2.469867   2.669602   3.939249   4.093697
    23  H    4.052354   4.889595   1.093285   2.452181   2.493290
    24  H    3.943217   4.089678   1.107036   3.053199   2.484167
    25  N    2.681860   3.381991   1.451299   2.671707   3.385440
    26  N    4.979896   4.832104   6.627842   5.204154   5.182536
    27  H    4.877508   4.633414   6.969783   5.564433   5.773728
    28  C    3.988829   4.535773   2.397526   3.978081   4.544189
    29  H    4.113456   4.658948   3.335118   4.611143   5.420462
    30  H    4.621796   5.414431   2.626567   4.101689   4.669640
    31  H    4.640879   4.819111   2.717242   4.631291   4.829701
    32  C    2.161983   2.175421   2.496849   2.162881   2.158217
    33  H    3.052583   2.498061   2.688899   3.046754   2.473739
    34  N    2.836151   2.799575   3.792463   2.779566   2.665687
                   21         22         23         24         25
    21  H    0.000000
    22  H    1.779514   0.000000
    23  H    4.127295   3.655941   0.000000
    24  H    3.655947   2.471193   1.779466   0.000000
    25  N    2.070068   2.121511   2.070315   2.121658   0.000000
    26  N    7.103643   6.766643   7.349580   6.921514   7.032251
    27  H    6.965829   6.808136   7.753879   7.299833   7.173877
    28  C    2.574644   2.718354   2.575787   2.719334   1.445450
    29  H    2.324601   3.066926   3.566152   3.713108   2.075881
    30  H    3.564195   3.712547   2.326725   3.069264   2.075342
    31  H    2.980221   2.573609   2.979323   2.573485   2.131182
    32  C    3.453838   2.761781   3.449164   2.757731   2.900428
    33  H    3.709735   2.497790   3.694964   2.484156   3.232529
    34  N    4.672349   4.110320   4.605781   4.064492   4.275159
                   26         27         28         29         30
    26  N    0.000000
    27  H    1.018059   0.000000
    28  C    8.464293   8.590603   0.000000
    29  H    8.892138   8.901113   1.089297   0.000000
    30  H    8.977502   9.176191   1.089219   1.769139   0.000000
    31  H    8.838003   8.994373   1.102465   1.779023   1.778931
    32  C    4.303666   4.574437   4.270372   4.852773   4.851605
    33  H    4.749419   5.061847   4.408912   5.066990   5.063088
    34  N    2.875272   3.264937   5.683227   6.226177   6.205079
                   31         32         33         34
    31  H    0.000000
    32  C    4.549986   0.000000
    33  H    4.416350   1.098461   0.000000
    34  N    6.002281   1.454044   2.043976   0.000000
 Stoichiometry    C10H21N3
 Framework group  C1[X(C10H21N3)]
 Deg. of freedom    96
 Full point group                 C1      NOp   1
 Largest Abelian subgroup         C1      NOp   1
 Largest concise Abelian subgroup C1      NOp   1
                         Standard orientation:                         
 ---------------------------------------------------------------------
 Center     Atomic      Atomic             Coordinates (Angstroms)
 Number     Number       Type             X           Y           Z
 ---------------------------------------------------------------------
      1          6           0       -3.087159    1.150385   -0.645190
      2          6           0       -1.635463    0.709378   -0.873440
      3          6           0       -1.959460   -1.118088    0.605188
      4          6           0       -3.413870   -0.681835    0.825608
      5          1           0       -1.602581    0.035208   -1.750742
      6          1           0       -1.018324    1.582291   -1.083920
      7          1           0       -3.117860    1.852602    0.191791
      8          1           0       -3.475891    1.645888   -1.537431
      9          1           0       -1.925248   -1.851180   -0.224286
     10          1           0       -1.582475   -1.604840    1.507306
     11          1           0       -4.042484   -1.552170    1.026216
     12          1           0       -3.454415   -0.009877    1.686793
     13          6           0        0.925115   -0.886462   -0.782496
     14          6           0        1.036856    1.146067    0.629349
     15          6           0        2.409309   -1.102362   -0.507603
     16          1           0        0.820785   -0.275264   -1.679620
     17          1           0        0.443513   -1.851257   -0.954969
     18          6           0        2.515996    0.853404    0.857107
     19          1           0        0.945414    1.783304   -0.249775
     20          1           0        0.620123    1.673460    1.487653
     21          1           0        2.876288   -1.589642   -1.368244
     22          1           0        2.527998   -1.770874    0.367418
     23          1           0        3.060554    1.791926    0.990910
     24          1           0        2.637728    0.253953    1.779803
     25          7           0        3.074004    0.169272   -0.294787
     26          7           0       -3.957005    0.038083   -0.310714
     27          1           0       -4.012816   -0.591864   -1.108521
     28          6           0        4.506250    0.011064   -0.180913
     29          1           0        4.887264   -0.457923   -1.087250
     30          1           0        4.966546    0.992854   -0.077888
     31          1           0        4.801222   -0.606390    0.683478
     32          6           0        0.280806   -0.165987    0.410991
     33          1           0        0.432490   -0.786360    1.304717
     34          7           0       -1.153872    0.055898    0.329065
 ---------------------------------------------------------------------
 Rotational constants (GHZ):           2.3269562           0.3648085           0.3538172
 Standard basis: GTBas1 (6D, 7F)
 There are   237 symmetry adapted cartesian basis functions of A   symmetry.
 There are   237 symmetry adapted basis functions of A   symmetry.
   237 basis functions,   448 primitive gaussians,   237 cartesian basis functions
    51 alpha electrons       51 beta electrons
       nuclear repulsion energy       885.3725476710 Hartrees.
 NAtoms=   34 NActive=   34 NUniq=   34 SFac= 1.00D+00 NAtFMM=   60 NAOKFM=F Big=F
 Integral buffers will be    131072 words long.
 Raffenetti 1 integral format.
 Two-electron integral symmetry is turned on.
 One-electron integrals computed using PRISM.
 NBasis=   237 RedAO= T EigKep=  2.55D-03  NBF=   237
 NBsUse=   237 1.00D-06 EigRej= -1.00D+00 NBFU=   237
 ExpMin= 1.61D-01 ExpMax= 4.17D+03 ExpMxC= 6.27D+02 IAcc=3 IRadAn=         5 AccDes= 0.00D+00
 Harris functional with IExCor=  205 and IRadAn=       5 diagonalized for initial guess.
 HarFok:  IExCor=  205 AccDes= 0.00D+00 IRadAn=         5 IDoV= 1 UseB2=F ITyADJ=14
 ICtDFT=  3500011 ScaDFX=  1.000000  1.000000  1.000000  1.000000
 FoFCou: FMM=F IPFlag=           0 FMFlag=      100000 FMFlg1=           0
         NFxFlg=           0 DoJE=T BraDBF=F KetDBF=T FulRan=T
         wScrn=  0.000000 ICntrl=       500 IOpCl=  0 I1Cent=   200000004 NGrid=           0
         NMat0=    1 NMatS0=      1 NMatT0=    0 NMatD0=    1 NMtDS0=    0 NMtDT0=    0
 Petite list used in FoFCou.
 Requested convergence on RMS density matrix=1.00D-08 within 128 cycles.
 Requested convergence on MAX density matrix=1.00D-06.
 Requested convergence on             energy=1.00D-06.
 No special actions if energy rises.
 Integral accuracy reduced to 1.0D-05 until final iterations.
 Initial convergence to 1.0D-05 achieved.  Increase integral accuracy.
 SCF Done:  E(RHF) =  -554.218491891     A.U. after   13 cycles
            NFock= 13  Conv=0.27D-08     -V/T= 2.0010

 **********************************************************************

            Population analysis using the SCF density.

 **********************************************************************

 Orbital symmetries:
       Occupied  (A) (A) (A) (A) (A) (A) (A) (A) (A) (A) (A) (A)
                 (A) (A) (A) (A) (A) (A) (A) (A) (A) (A) (A) (A)
                 (A) (A) (A) (A) (A) (A) (A) (A) (A) (A) (A) (A)
                 (A) (A) (A) (A) (A) (A) (A) (A) (A) (A) (A) (A)
                 (A) (A) (A)
       Virtual   (A) (A) (A) (A) (A) (A) (A) (A) (A) (A) (A) (A)
                 (A) (A) (A) (A) (A) (A) (A) (A) (A) (A) (A) (A)
                 (A) (A) (A) (A) (A) (A) (A) (A) (A) (A) (A) (A)
                 (A) (A) (A) (A) (A) (A) (A) (A) (A) (A) (A) (A)
                 (A) (A) (A) (A) (A) (A) (A) (A) (A) (A) (A) (A)
                 (A) (A) (A) (A) (A) (A) (A) (A) (A) (A) (A) (A)
                 (A) (A) (A) (A) (A) (A) (A) (A) (A) (A) (A) (A)
                 (A) (A) (A) (A) (A) (A) (A) (A) (A) (A) (A) (A)
                 (A) (A) (A) (A) (A) (A) (A) (A) (A) (A) (A) (A)
                 (A) (A) (A) (A) (A) (A) (A) (A) (A) (A) (A) (A)
                 (A) (A) (A) (A) (A) (A) (A) (A) (A) (A) (A) (A)
                 (A) (A) (A) (A) (A) (A) (A) (A) (A) (A) (A) (A)
                 (A) (A) (A) (A) (A) (A) (A) (A) (A) (A) (A) (A)
                 (A) (A) (A) (A) (A) (A) (A) (A) (A) (A) (A) (A)
                 (A) (A) (A) (A) (A) (A) (A) (A) (A) (A) (A) (A)
                 (A) (A) (A) (A) (A) (A)
 The electronic state is 1-A.
 Alpha  occ. eigenvalues --  -15.54399 -15.54096 -15.53700 -11.24782 -11.24475
 Alpha  occ. eigenvalues --  -11.24304 -11.24223 -11.24089 -11.23918 -11.23875
 Alpha  occ. eigenvalues --  -11.23831 -11.21235 -11.20978  -1.25269  -1.23565
 Alpha  occ. eigenvalues --   -1.18824  -1.05960  -1.01897  -1.01491  -0.94444
 Alpha  occ. eigenvalues --   -0.89110  -0.86099  -0.84928  -0.81846  -0.78050
 Alpha  occ. eigenvalues --   -0.75267  -0.68236  -0.64558  -0.63184  -0.63052
 Alpha  occ. eigenvalues --   -0.62459  -0.61906  -0.61497  -0.59676  -0.57668
 Alpha  occ. eigenvalues --   -0.56955  -0.54952  -0.53697  -0.53492  -0.52382
 Alpha  occ. eigenvalues --   -0.50332  -0.49682  -0.49153  -0.48431  -0.47658
 Alpha  occ. eigenvalues --   -0.45926  -0.45457  -0.44455  -0.36435  -0.35131
 Alpha  occ. eigenvalues --   -0.33094
 Alpha virt. eigenvalues --    0.22754   0.22884   0.24745   0.25490   0.25774
 Alpha virt. eigenvalues --    0.27925   0.28792   0.29440   0.30226   0.30857
 Alpha virt. eigenvalues --    0.31212   0.31415   0.32032   0.32562   0.33731
 Alpha virt. eigenvalues --    0.34113   0.34539   0.34801   0.35433   0.36079
 Alpha virt. eigenvalues --    0.37479   0.38265   0.40324   0.41296   0.42119
 Alpha virt. eigenvalues --    0.42826   0.44706   0.45896   0.47014   0.47110
 Alpha virt. eigenvalues --    0.48294   0.48638   0.48977   0.50132   0.53009
 Alpha virt. eigenvalues --    0.71614   0.72297   0.72779   0.74837   0.77136
 Alpha virt. eigenvalues --    0.77929   0.78414   0.79378   0.80435   0.82423
 Alpha virt. eigenvalues --    0.83853   0.84786   0.85355   0.87012   0.87797
 Alpha virt. eigenvalues --    0.91506   0.92434   0.92902   0.96078   0.97057
 Alpha virt. eigenvalues --    0.97430   0.99943   1.03368   1.03668   1.05167
 Alpha virt. eigenvalues --    1.05459   1.06620   1.07327   1.09258   1.10295
 Alpha virt. eigenvalues --    1.11192   1.11969   1.12615   1.13403   1.14809
 Alpha virt. eigenvalues --    1.14971   1.15648   1.17115   1.17476   1.18514
 Alpha virt. eigenvalues --    1.18925   1.19463   1.20258   1.20824   1.21393
 Alpha virt. eigenvalues --    1.22328   1.22566   1.23242   1.23931   1.25084
 Alpha virt. eigenvalues --    1.25552   1.27322   1.27980   1.28243   1.29851
 Alpha virt. eigenvalues --    1.36457   1.40112   1.42634   1.49866   1.50643
 Alpha virt. eigenvalues --    1.53749   1.54767   1.59971   1.62368   1.62988
 Alpha virt. eigenvalues --    1.65515   1.68462   1.70056   1.71946   1.75672
 Alpha virt. eigenvalues --    1.78859   1.81261   1.84185   1.86396   1.90361
 Alpha virt. eigenvalues --    1.95794   2.00265   2.01513   2.06117   2.07660
 Alpha virt. eigenvalues --    2.08236   2.12463   2.15410   2.17410   2.20026
 Alpha virt. eigenvalues --    2.22027   2.24472   2.25838   2.28845   2.29347
 Alpha virt. eigenvalues --    2.31319   2.31907   2.32884   2.34853   2.35902
 Alpha virt. eigenvalues --    2.37070   2.39101   2.40259   2.41031   2.42097
 Alpha virt. eigenvalues --    2.43073   2.43641   2.46116   2.46326   2.48100
 Alpha virt. eigenvalues --    2.49352   2.54013   2.55469   2.57768   2.59660
 Alpha virt. eigenvalues --    2.64258   2.65887   2.66707   2.69769   2.70545
 Alpha virt. eigenvalues --    2.72328   2.72584   2.75171   2.79319   2.79886
 Alpha virt. eigenvalues --    2.84458   2.85848   2.86088   2.91026   2.91236
 Alpha virt. eigenvalues --    2.95644   3.00288   3.04188   3.06371   3.09858
 Alpha virt. eigenvalues --    3.12234   3.15192   3.19301   3.21338   3.23840
 Alpha virt. eigenvalues --    3.27010   3.29915   3.41775   4.37554   4.51509
 Alpha virt. eigenvalues --    4.52562   4.65640   4.69104   4.71127   4.71970
 Alpha virt. eigenvalues --    4.80775   4.92071   4.93303   4.98486   5.02440
 Alpha virt. eigenvalues --    5.10103
          Condensed to atoms (all electrons):
               1          2          3          4          5          6
     1  C    4.933711   0.353504  -0.004838  -0.065234  -0.049411  -0.028667
     2  C    0.353504   5.038342  -0.052735  -0.004658   0.384472   0.400362
     3  C   -0.004838  -0.052735   5.026254   0.354927  -0.007229   0.005040
     4  C   -0.065234  -0.004658   0.354927   4.932368   0.000228  -0.000408
     5  H   -0.049411   0.384472  -0.007229   0.000228   0.619590  -0.032154
     6  H   -0.028667   0.400362   0.005040  -0.000408  -0.032154   0.529984
     7  H    0.400803  -0.053034  -0.000773  -0.004722   0.005060  -0.001339
     8  H    0.405951  -0.049343  -0.000641   0.005262   0.000756  -0.001161
     9  H    0.000329  -0.006661   0.380002  -0.049065   0.010476  -0.000251
    10  H   -0.000454   0.005133   0.399189  -0.028725  -0.000205  -0.000062
    11  H    0.005233  -0.000664  -0.049176   0.405417   0.000063   0.000016
    12  H   -0.004740  -0.000754  -0.053627   0.401449   0.000227  -0.000016
    13  C   -0.000041  -0.007206  -0.002298  -0.000114   0.003056  -0.001851
    14  C   -0.000060  -0.006320   0.005116  -0.000130   0.000110   0.000196
    15  C    0.000002   0.000045  -0.000091   0.000003  -0.000101  -0.000010
    16  H    0.000078   0.000755   0.000107  -0.000016  -0.001788  -0.000004
    17  H   -0.000036  -0.000260   0.001038   0.000003  -0.000024   0.000068
    18  C   -0.000000   0.000050  -0.000118   0.000001   0.000025  -0.000049
    19  H    0.000012  -0.000974  -0.000164   0.000002   0.000046  -0.000210
    20  H   -0.000101   0.000210  -0.000107  -0.000022   0.000062  -0.000100
    21  H   -0.000000   0.000004   0.000000  -0.000000   0.000010   0.000000
    22  H    0.000000  -0.000010  -0.000013  -0.000000  -0.000004  -0.000002
    23  H   -0.000000   0.000004   0.000002  -0.000000  -0.000000   0.000010
    24  H   -0.000000  -0.000013  -0.000013  -0.000000   0.000000  -0.000007
    25  N   -0.000000  -0.000024   0.000003   0.000000  -0.000002  -0.000011
    26  N    0.288786  -0.073915  -0.073433   0.288873  -0.002017   0.004380
    27  H   -0.042441  -0.002115  -0.002051  -0.042438   0.003783  -0.000043
    28  C    0.000000   0.000000  -0.000000  -0.000000   0.000000  -0.000000
    29  H   -0.000000   0.000000   0.000000  -0.000000   0.000000   0.000000
    30  H    0.000000   0.000000   0.000000   0.000000   0.000000   0.000000
    31  H   -0.000000  -0.000000  -0.000000  -0.000000  -0.000000  -0.000000
    32  C    0.004278  -0.043186  -0.055629   0.004503  -0.004456  -0.002403
    33  H   -0.000112   0.004892  -0.006775   0.000027  -0.000262   0.000024
    34  N   -0.060080   0.247840   0.261754  -0.060792  -0.057459  -0.041798
               7          8          9         10         11         12
     1  C    0.400803   0.405951   0.000329  -0.000454   0.005233  -0.004740
     2  C   -0.053034  -0.049343  -0.006661   0.005133  -0.000664  -0.000754
     3  C   -0.000773  -0.000641   0.380002   0.399189  -0.049176  -0.053627
     4  C   -0.004722   0.005262  -0.049065  -0.028725   0.405417   0.401449
     5  H    0.005060   0.000756   0.010476  -0.000205   0.000063   0.000227
     6  H   -0.001339  -0.001161  -0.000251  -0.000062   0.000016  -0.000016
     7  H    0.534594  -0.020180   0.000227  -0.000009   0.000059   0.004800
     8  H   -0.020180   0.534128   0.000065   0.000016  -0.000101   0.000061
     9  H    0.000227   0.000065   0.626977  -0.032671   0.000629   0.005097
    10  H   -0.000009   0.000016  -0.032671   0.537416  -0.001069  -0.001386
    11  H    0.000059  -0.000101   0.000629  -0.001069   0.535082  -0.020393
    12  H    0.004800   0.000061   0.005097  -0.001386  -0.020393   0.535028
    13  C    0.000012   0.000008   0.002957  -0.000247   0.000006   0.000009
    14  C    0.000048  -0.000005  -0.000307   0.000138   0.000001  -0.000016
    15  C   -0.000000  -0.000000  -0.000140  -0.000014  -0.000000  -0.000000
    16  H   -0.000004   0.000001   0.000017  -0.000002  -0.000000   0.000000
    17  H   -0.000000   0.000000  -0.000497   0.000137   0.000001  -0.000001
    18  C    0.000000   0.000000   0.000013  -0.000017  -0.000000   0.000000
    19  H    0.000012   0.000002   0.000005  -0.000007  -0.000000   0.000001
    20  H    0.000061   0.000002   0.000020   0.000000   0.000000   0.000015
    21  H    0.000000   0.000000   0.000007   0.000000   0.000000   0.000000
    22  H   -0.000000  -0.000000  -0.000003  -0.000006   0.000000  -0.000000
    23  H   -0.000000   0.000000  -0.000000   0.000000   0.000000  -0.000000
    24  H    0.000000  -0.000000   0.000000  -0.000007  -0.000000  -0.000000
    25  N   -0.000000  -0.000000  -0.000001   0.000001  -0.000000  -0.000000
    26  N   -0.047205  -0.039882  -0.002027   0.004388  -0.039625  -0.047498
    27  H    0.005667  -0.003524   0.003653  -0.000040  -0.003578   0.005678
    28  C    0.000000  -0.000000   0.000000  -0.000000  -0.000000   0.000000
    29  H    0.000000   0.000000  -0.000000   0.000000   0.000000   0.000000
    30  H   -0.000000   0.000000   0.000000   0.000000   0.000000  -0.000000
    31  H    0.000000  -0.000000   0.000000  -0.000000   0.000000  -0.000000
    32  C   -0.000464  -0.000094  -0.003196  -0.005726  -0.000112  -0.000379
    33  H   -0.000006   0.000002  -0.000200   0.003687  -0.000013   0.000020
    34  N    0.002546   0.003988  -0.058265  -0.042419   0.004030   0.002602
              13         14         15         16         17         18
     1  C   -0.000041  -0.000060   0.000002   0.000078  -0.000036  -0.000000
     2  C   -0.007206  -0.006320   0.000045   0.000755  -0.000260   0.000050
     3  C   -0.002298   0.005116  -0.000091   0.000107   0.001038  -0.000118
     4  C   -0.000114  -0.000130   0.000003  -0.000016   0.000003   0.000001
     5  H    0.003056   0.000110  -0.000101  -0.001788  -0.000024   0.000025
     6  H   -0.001851   0.000196  -0.000010  -0.000004   0.000068  -0.000049
     7  H    0.000012   0.000048  -0.000000  -0.000004  -0.000000   0.000000
     8  H    0.000008  -0.000005  -0.000000   0.000001   0.000000   0.000000
     9  H    0.002957  -0.000307  -0.000140   0.000017  -0.000497   0.000013
    10  H   -0.000247   0.000138  -0.000014  -0.000002   0.000137  -0.000017
    11  H    0.000006   0.000001  -0.000000  -0.000000   0.000001  -0.000000
    12  H    0.000009  -0.000016  -0.000000   0.000000  -0.000001   0.000000
    13  C    5.188282  -0.080232   0.342608   0.392247   0.395795  -0.000602
    14  C   -0.080232   5.124957  -0.004474  -0.004080   0.004856   0.343303
    15  C    0.342608  -0.004474   4.959293  -0.040091  -0.037080  -0.060785
    16  H    0.392247  -0.004080  -0.040091   0.532993  -0.023238   0.000477
    17  H    0.395795   0.004856  -0.037080  -0.023238   0.538390  -0.000414
    18  C   -0.000602   0.343303  -0.060785   0.000477  -0.000414   4.970811
    19  H   -0.004857   0.392192   0.000645   0.003113  -0.000016  -0.040347
    20  H    0.005716   0.393515  -0.000465  -0.000030  -0.000100  -0.034507
    21  H   -0.032421  -0.000585   0.409545  -0.003641  -0.003025   0.005450
    22  H   -0.049344   0.001088   0.389636   0.005009   0.000352  -0.005645
    23  H   -0.000610  -0.032036   0.005332  -0.000066   0.000014   0.409004
    24  H    0.000971  -0.048219  -0.005400   0.000179   0.000027   0.390197
    25  N   -0.061183  -0.059644   0.270996   0.001992   0.003708   0.265277
    26  N   -0.000044   0.000003  -0.000000   0.000002   0.000006   0.000000
    27  H   -0.000001   0.000000  -0.000000  -0.000001  -0.000002   0.000000
    28  C    0.005384   0.005321  -0.064877  -0.000182  -0.000115  -0.064394
    29  H   -0.000018  -0.000153  -0.004170  -0.000002  -0.000010   0.005501
    30  H   -0.000154  -0.000024   0.005537  -0.000003   0.000002  -0.004127
    31  H   -0.000180  -0.000176  -0.005245   0.000018   0.000013  -0.005183
    32  C    0.345514   0.377097  -0.042722  -0.038063  -0.037535  -0.048868
    33  H   -0.055590  -0.042809  -0.001452   0.004328  -0.002020  -0.003241
    34  N   -0.061873  -0.065105   0.003930  -0.002448  -0.001658   0.003831
              19         20         21         22         23         24
     1  C    0.000012  -0.000101  -0.000000   0.000000  -0.000000  -0.000000
     2  C   -0.000974   0.000210   0.000004  -0.000010   0.000004  -0.000013
     3  C   -0.000164  -0.000107   0.000000  -0.000013   0.000002  -0.000013
     4  C    0.000002  -0.000022  -0.000000  -0.000000  -0.000000  -0.000000
     5  H    0.000046   0.000062   0.000010  -0.000004  -0.000000   0.000000
     6  H   -0.000210  -0.000100   0.000000  -0.000002   0.000010  -0.000007
     7  H    0.000012   0.000061   0.000000  -0.000000  -0.000000   0.000000
     8  H    0.000002   0.000002   0.000000  -0.000000   0.000000  -0.000000
     9  H    0.000005   0.000020   0.000007  -0.000003  -0.000000   0.000000
    10  H   -0.000007   0.000000   0.000000  -0.000006   0.000000  -0.000007
    11  H   -0.000000   0.000000   0.000000   0.000000   0.000000  -0.000000
    12  H    0.000001   0.000015   0.000000  -0.000000  -0.000000  -0.000000
    13  C   -0.004857   0.005716  -0.032421  -0.049344  -0.000610   0.000971
    14  C    0.392192   0.393515  -0.000585   0.001088  -0.032036  -0.048219
    15  C    0.000645  -0.000465   0.409545   0.389636   0.005332  -0.005400
    16  H    0.003113  -0.000030  -0.003641   0.005009  -0.000066   0.000179
    17  H   -0.000016  -0.000100  -0.003025   0.000352   0.000014   0.000027
    18  C   -0.040347  -0.034507   0.005450  -0.005645   0.409004   0.390197
    19  H    0.540587  -0.023243  -0.000074   0.000191  -0.003752   0.005121
    20  H   -0.023243   0.524354   0.000015   0.000021  -0.003036   0.000116
    21  H   -0.000074   0.000015   0.534939  -0.035373  -0.000129  -0.000298
    22  H    0.000191   0.000021  -0.035373   0.617817  -0.000295   0.009785
    23  H   -0.003752  -0.003036  -0.000129  -0.000295   0.533747  -0.035087
    24  H    0.005121   0.000116  -0.000298   0.009785  -0.035087   0.615676
    25  N    0.001906   0.003604  -0.043158  -0.060198  -0.042558  -0.060486
    26  N   -0.000001   0.000002   0.000000  -0.000000   0.000000  -0.000000
    27  H    0.000000   0.000000   0.000000  -0.000000  -0.000000   0.000000
    28  C   -0.000181  -0.000106  -0.005103  -0.003527  -0.005147  -0.003451
    29  H   -0.000003   0.000002   0.003414  -0.000688   0.000073  -0.000317
    30  H   -0.000004  -0.000009   0.000071  -0.000317   0.003403  -0.000685
    31  H    0.000020   0.000012  -0.000774   0.008238  -0.000771   0.008171
    32  C   -0.039261  -0.038739   0.004187  -0.009690   0.004666  -0.010126
    33  H    0.004448  -0.002750  -0.000105   0.004087  -0.000043   0.004027
    34  N   -0.002598   0.002732  -0.000078  -0.000102  -0.000076  -0.000107
              25         26         27         28         29         30
     1  C   -0.000000   0.288786  -0.042441   0.000000  -0.000000   0.000000
     2  C   -0.000024  -0.073915  -0.002115   0.000000   0.000000   0.000000
     3  C    0.000003  -0.073433  -0.002051  -0.000000   0.000000   0.000000
     4  C    0.000000   0.288873  -0.042438  -0.000000  -0.000000   0.000000
     5  H   -0.000002  -0.002017   0.003783   0.000000   0.000000   0.000000
     6  H   -0.000011   0.004380  -0.000043  -0.000000   0.000000   0.000000
     7  H   -0.000000  -0.047205   0.005667   0.000000   0.000000  -0.000000
     8  H   -0.000000  -0.039882  -0.003524  -0.000000   0.000000   0.000000
     9  H   -0.000001  -0.002027   0.003653   0.000000  -0.000000   0.000000
    10  H    0.000001   0.004388  -0.000040  -0.000000   0.000000   0.000000
    11  H   -0.000000  -0.039625  -0.003578  -0.000000   0.000000   0.000000
    12  H   -0.000000  -0.047498   0.005678   0.000000   0.000000  -0.000000
    13  C   -0.061183  -0.000044  -0.000001   0.005384  -0.000018  -0.000154
    14  C   -0.059644   0.000003   0.000000   0.005321  -0.000153  -0.000024
    15  C    0.270996  -0.000000  -0.000000  -0.064877  -0.004170   0.005537
    16  H    0.001992   0.000002  -0.000001  -0.000182  -0.000002  -0.000003
    17  H    0.003708   0.000006  -0.000002  -0.000115  -0.000010   0.000002
    18  C    0.265277   0.000000   0.000000  -0.064394   0.005501  -0.004127
    19  H    0.001906  -0.000001   0.000000  -0.000181  -0.000003  -0.000004
    20  H    0.003604   0.000002   0.000000  -0.000106   0.000002  -0.000009
    21  H   -0.043158   0.000000   0.000000  -0.005103   0.003414   0.000071
    22  H   -0.060198  -0.000000  -0.000000  -0.003527  -0.000688  -0.000317
    23  H   -0.042558   0.000000  -0.000000  -0.005147   0.000073   0.003403
    24  H   -0.060486  -0.000000   0.000000  -0.003451  -0.000317  -0.000685
    25  N    7.198927   0.000000  -0.000000   0.282300  -0.042433  -0.042477
    26  N    0.000000   7.085550   0.328597  -0.000000   0.000000  -0.000000
    27  H   -0.000000   0.328597   0.426311   0.000000   0.000000  -0.000000
    28  C    0.282300  -0.000000   0.000000   4.943441   0.403137   0.403349
    29  H   -0.042433   0.000000   0.000000   0.403137   0.528637  -0.022463
    30  H   -0.042477  -0.000000  -0.000000   0.403349  -0.022463   0.527689
    31  H   -0.054685   0.000000   0.000000   0.384184  -0.036778  -0.036713
    32  C   -0.002431  -0.000326  -0.000043  -0.000161   0.000023   0.000022
    33  H   -0.000088   0.000012   0.000001  -0.000095   0.000001   0.000001
    34  N   -0.000139  -0.001221  -0.000536   0.000004  -0.000000  -0.000000
              31         32         33         34
     1  C   -0.000000   0.004278  -0.000112  -0.060080
     2  C   -0.000000  -0.043186   0.004892   0.247840
     3  C   -0.000000  -0.055629  -0.006775   0.261754
     4  C   -0.000000   0.004503   0.000027  -0.060792
     5  H   -0.000000  -0.004456  -0.000262  -0.057459
     6  H   -0.000000  -0.002403   0.000024  -0.041798
     7  H    0.000000  -0.000464  -0.000006   0.002546
     8  H   -0.000000  -0.000094   0.000002   0.003988
     9  H    0.000000  -0.003196  -0.000200  -0.058265
    10  H   -0.000000  -0.005726   0.003687  -0.042419
    11  H    0.000000  -0.000112  -0.000013   0.004030
    12  H   -0.000000  -0.000379   0.000020   0.002602
    13  C   -0.000180   0.345514  -0.055590  -0.061873
    14  C   -0.000176   0.377097  -0.042809  -0.065105
    15  C   -0.005245  -0.042722  -0.001452   0.003930
    16  H    0.000018  -0.038063   0.004328  -0.002448
    17  H    0.000013  -0.037535  -0.002020  -0.001658
    18  C   -0.005183  -0.048868  -0.003241   0.003831
    19  H    0.000020  -0.039261   0.004448  -0.002598
    20  H    0.000012  -0.038739  -0.002750   0.002732
    21  H   -0.000774   0.004187  -0.000105  -0.000078
    22  H    0.008238  -0.009690   0.004087  -0.000102
    23  H   -0.000771   0.004666  -0.000043  -0.000076
    24  H    0.008171  -0.010126   0.004027  -0.000107
    25  N   -0.054685  -0.002431  -0.000088  -0.000139
    26  N    0.000000  -0.000326   0.000012  -0.001221
    27  H    0.000000  -0.000043   0.000001  -0.000536
    28  C    0.384184  -0.000161  -0.000095   0.000004
    29  H   -0.036778   0.000023   0.000001  -0.000000
    30  H   -0.036713   0.000022   0.000001  -0.000000
    31  H    0.609393  -0.000126   0.000009  -0.000000
    32  C   -0.000126   4.889118   0.420530   0.287449
    33  H    0.000009   0.420530   0.561500  -0.049159
    34  N   -0.000000   0.287449  -0.049159   7.286663
 Mulliken charges:
               1
     1  C   -0.136469
     2  C   -0.133741
     3  C   -0.123722
     4  C   -0.136739
     5  H    0.127144
     6  H    0.170464
     7  H    0.173847
     8  H    0.164689
     9  H    0.122810
    10  H    0.162962
    11  H    0.164195
    12  H    0.173823
    13  C   -0.323699
    14  C   -0.303566
    15  C   -0.120453
    16  H    0.172343
    17  H    0.161620
    18  C   -0.125644
    19  H    0.167394
    20  H    0.172856
    21  H    0.167123
    22  H    0.128994
    23  H    0.167352
    24  H    0.129944
    25  N   -0.559197
    26  N   -0.673406
    27  H    0.323122
    28  C   -0.279781
    29  H    0.166246
    30  H    0.166903
    31  H    0.130574
    32  C    0.046348
    33  H    0.157123
    34  N   -0.601458
 Sum of Mulliken charges =  -0.00000
 Mulliken charges with hydrogens summed into heavy atoms:
               1
     1  C    0.202067
     2  C    0.163867
     3  C    0.162050
     4  C    0.201278
    13  C    0.010264
    14  C    0.036683
    15  C    0.175665
    18  C    0.171653
    25  N   -0.559197
    26  N   -0.350284
    28  C    0.183942
    32  C    0.203472
    34  N   -0.601458
 Electronic spatial extent (au):  <R**2>=           3335.2544
 Charge=             -0.0000 electrons
 Dipole moment (field-independent basis, Debye):
    X=              1.4943    Y=             -1.1794    Z=             -0.2520  Tot=              1.9203
 Quadrupole moment (field-independent basis, Debye-Ang):
   XX=            -91.5813   YY=            -80.7647   ZZ=            -81.8438
   XY=              2.5680   XZ=              3.4437   YZ=              0.2828
 Traceless Quadrupole moment (field-independent basis, Debye-Ang):
   XX=             -6.8514   YY=              3.9653   ZZ=              2.8861
   XY=              2.5680   XZ=              3.4437   YZ=              0.2828
 Octapole moment (field-independent basis, Debye-Ang**2):
  XXX=             72.9870  YYY=              2.9431  ZZZ=             -2.0096  XYY=             -5.3050
  XXY=            -15.3156  XXZ=             -4.4260  XZZ=             -9.7907  YZZ=             -1.8567
  YYZ=             -0.5120  XYZ=              4.7171
 Hexadecapole moment (field-independent basis, Debye-Ang**3):
 XXXX=          -3986.0216 YYYY=           -490.4516 ZZZZ=           -360.8566 XXXY=             74.5981
 XXXZ=             13.0471 YYYX=             10.4797 YYYZ=              0.3120 ZZZX=              4.6483
 ZZZY=              0.0263 XXYY=           -668.4334 XXZZ=           -650.2146 YYZZ=           -137.4468
 XXYZ=             17.1699 YYXZ=              2.4811 ZZXY=             -3.6403
 N-N= 8.853725476710D+02 E-N=-3.063167712524D+03  KE= 5.536680928581D+02
 Calling FoFJK, ICntrl=      2127 FMM=F ISym2X=0 I1Cent= 0 IOpClX= 0 NMat=1 NMatS=1 NMatT=0.
 ***** Axes restored to original set *****
 -------------------------------------------------------------------
 Center     Atomic                   Forces (Hartrees/Bohr)
 Number     Number              X              Y              Z
 -------------------------------------------------------------------
      1        6           0.001250856    0.003132931   -0.004700597
      2        6          -0.002613207    0.005209198   -0.001750937
      3        6          -0.003301343   -0.002479529    0.003529314
      4        6          -0.000224634   -0.005652881    0.002318971
      5        1           0.000957147    0.006441380    0.005161462
      6        1          -0.003297980   -0.004663147   -0.001393387
      7        1           0.000561765   -0.001515774   -0.006517866
      8        1           0.001716903   -0.000753018    0.004770529
      9        1           0.000160834    0.003550127    0.007086128
     10        1          -0.001638781    0.001040031   -0.004955079
     11        1           0.002535409    0.004426381    0.000728313
     12        1          -0.000174426   -0.006067948   -0.002930498
     13        6          -0.002334255   -0.004072889    0.002125296
     14        6          -0.000284814   -0.000276417    0.004623662
     15        6           0.002769234   -0.004330247   -0.004858790
     16        1           0.000145178   -0.004478720    0.002205635
     17        1           0.001634902    0.003768593   -0.001219484
     18        6           0.002820779    0.005948193    0.001389037
     19        1           0.000538118   -0.000640050    0.004577263
     20        1           0.000840138   -0.001201882   -0.003358034
     21        1          -0.002495358    0.001052578    0.006015076
     22        1           0.000623310    0.003249323   -0.006746811
     23        1          -0.002726428   -0.005615755    0.001245430
     24        1           0.000665103    0.005166875   -0.005257124
     25        7           0.002069014   -0.003895983    0.005340566
     26        7          -0.001134163   -0.007029284   -0.009236559
     27        1          -0.000654640    0.008110968    0.010011396
     28        6           0.001463515   -0.000169975    0.000056577
     29        1           0.000617589    0.001926673    0.003925696
     30        1           0.000287909   -0.004363465   -0.000462768
     31        1          -0.000520125    0.003266465   -0.004654644
     32        6           0.000602699    0.000521595    0.001717687
     33        1          -0.000326541    0.004678126   -0.006323850
     34        7          -0.000533709   -0.004282473   -0.002461613
 -------------------------------------------------------------------
 Cartesian Forces:  Max     0.010011396 RMS     0.003713889

 GradGradGradGradGradGradGradGradGradGradGradGradGradGradGradGradGradGrad
 Berny optimization.
 FormGI is forming the generalized inverse of G from B-inverse, IUseBI=4.
 Internal  Forces:  Max     0.012830428 RMS     0.002350850
 Search for a local minimum.
 Step number   1 out of a maximum of  204
 All quantities printed in internal units (Hartrees-Bohrs-Radians)
 Mixed Optimization -- RFO/linear search
 Second derivative matrix not updated -- first step.
 ITU=  0
     Eigenvalues ---    0.00639   0.00690   0.00708   0.00977   0.00994
     Eigenvalues ---    0.01091   0.01216   0.01352   0.01914   0.02054
     Eigenvalues ---    0.02387   0.02928   0.03174   0.03323   0.04036
     Eigenvalues ---    0.04570   0.04612   0.04671   0.04735   0.04794
     Eigenvalues ---    0.04974   0.05127   0.05423   0.05474   0.05784
     Eigenvalues ---    0.05830   0.06028   0.06198   0.06351   0.06363
     Eigenvalues ---    0.07158   0.07320   0.07323   0.07751   0.07767
     Eigenvalues ---    0.07801   0.08640   0.08661   0.08726   0.08860
     Eigenvalues ---    0.08906   0.09040   0.09142   0.09392   0.09488
     Eigenvalues ---    0.09508   0.11767   0.12302   0.12701   0.13651
     Eigenvalues ---    0.15094   0.15713   0.15858   0.16000   0.16000
     Eigenvalues ---    0.16000   0.16169   0.18113   0.18322   0.20468
     Eigenvalues ---    0.21700   0.27635   0.27928   0.28338   0.28489
     Eigenvalues ---    0.29029   0.29903   0.32861   0.32863   0.32916
     Eigenvalues ---    0.32930   0.33411   0.33853   0.34387   0.34436
     Eigenvalues ---    0.34460   0.34471   0.34561   0.34562   0.34569
     Eigenvalues ---    0.34580   0.34750   0.34792   0.34856   0.34864
     Eigenvalues ---    0.34894   0.34903   0.35334   0.35664   0.36512
     Eigenvalues ---    0.36934   0.37720   0.38135   0.38149   0.38847
     Eigenvalues ---    0.44649
 RFO step:  Lambda=-5.86933066D-03 EMin= 6.39326614D-03
 Linear search not attempted -- first point.
 Iteration  1 RMS(Cart)=  0.03008015 RMS(Int)=  0.00030336
 Iteration  2 RMS(Cart)=  0.00045241 RMS(Int)=  0.00014359
 Iteration  3 RMS(Cart)=  0.00000008 RMS(Int)=  0.00014359
 Variable       Old X    -DE/DX   Delta X   Delta X   Delta X     New X
                                 (Linear)    (Quad)   (Total)
    R1        2.89936  -0.00304   0.00000  -0.00991  -0.00990   2.88946
    R2        2.06542  -0.00599   0.00000  -0.01708  -0.01708   2.04834
    R3        2.06381  -0.00485   0.00000  -0.01379  -0.01379   2.05002
    R4        2.74220   0.00382   0.00000   0.00961   0.00962   2.75182
    R5        2.09175  -0.00798   0.00000  -0.02381  -0.02381   2.06795
    R6        2.05897  -0.00534   0.00000  -0.01507  -0.01507   2.04390
    R7        2.74172   0.00444   0.00000   0.01148   0.01145   2.75317
    R8        2.89949  -0.00297   0.00000  -0.01037  -0.01038   2.88911
    R9        2.09293  -0.00766   0.00000  -0.02289  -0.02289   2.07004
   R10        2.06393  -0.00512   0.00000  -0.01457  -0.01457   2.04936
   R11        2.74073   0.00325   0.00000   0.00868   0.00867   2.74940
   R12        2.06394  -0.00486   0.00000  -0.01382  -0.01382   2.05012
   R13        2.06561  -0.00603   0.00000  -0.01719  -0.01719   2.04842
   R14        2.74141   0.00379   0.00000   0.00973   0.00975   2.75117
   R15        2.88145   0.00248   0.00000   0.00775   0.00776   2.88921
   R16        2.06082  -0.00434   0.00000  -0.01229  -0.01229   2.04853
   R17        2.06363  -0.00385   0.00000  -0.01095  -0.01095   2.05267
   R18        2.90221   0.00201   0.00000   0.00700   0.00699   2.90920
   R19        2.88168   0.00188   0.00000   0.00651   0.00650   2.88818
   R20        2.05910  -0.00411   0.00000  -0.01159  -0.01159   2.04751
   R21        2.06014  -0.00355   0.00000  -0.01002  -0.01002   2.05012
   R22        2.89121   0.00184   0.00000   0.00653   0.00650   2.89770
   R23        2.06682  -0.00627   0.00000  -0.01793  -0.01793   2.04889
   R24        2.09296  -0.00722   0.00000  -0.02160  -0.02160   2.07136
   R25        2.74119   0.00217   0.00000   0.00530   0.00533   2.74652
   R26        2.06601  -0.00602   0.00000  -0.01719  -0.01719   2.04882
   R27        2.09199  -0.00711   0.00000  -0.02123  -0.02123   2.07076
   R28        2.74256   0.00214   0.00000   0.00539   0.00540   2.74795
   R29        2.73150   0.00167   0.00000   0.00423   0.00423   2.73573
   R30        1.92385  -0.01283   0.00000  -0.02836  -0.02836   1.89549
   R31        2.05847  -0.00388   0.00000  -0.01092  -0.01092   2.04755
   R32        2.05833  -0.00386   0.00000  -0.01086  -0.01086   2.04746
   R33        2.08336  -0.00562   0.00000  -0.01653  -0.01653   2.06683
   R34        2.07579  -0.00783   0.00000  -0.02275  -0.02275   2.05304
   R35        2.74775   0.00624   0.00000   0.01630   0.01630   2.76404
    A1        1.90199  -0.00082   0.00000  -0.01079  -0.01081   1.89118
    A2        1.92373   0.00091   0.00000   0.00437   0.00435   1.92808
    A3        1.96182  -0.00078   0.00000   0.00867   0.00835   1.97017
    A4        1.90089  -0.00132   0.00000  -0.02076  -0.02083   1.88006
    A5        1.87457   0.00119   0.00000   0.01028   0.01038   1.88495
    A6        1.89940   0.00078   0.00000   0.00729   0.00732   1.90672
    A7        1.89767  -0.00064   0.00000  -0.00680  -0.00673   1.89094
    A8        1.91174  -0.00007   0.00000   0.00041   0.00022   1.91197
    A9        1.89677   0.00142   0.00000   0.01814   0.01765   1.91442
   A10        1.89444  -0.00117   0.00000  -0.02283  -0.02290   1.87154
   A11        1.95273  -0.00065   0.00000  -0.00361  -0.00346   1.94927
   A12        1.91023   0.00110   0.00000   0.01459   0.01457   1.92480
   A13        1.90188  -0.00052   0.00000  -0.00616  -0.00616   1.89572
   A14        1.91266   0.00005   0.00000   0.00229   0.00229   1.91495
   A15        1.90045   0.00151   0.00000   0.01870   0.01832   1.91877
   A16        1.88909  -0.00086   0.00000  -0.01816  -0.01821   1.87088
   A17        1.95633  -0.00056   0.00000  -0.00145  -0.00134   1.95498
   A18        1.90316   0.00038   0.00000   0.00465   0.00460   1.90777
   A19        1.92345   0.00096   0.00000   0.00570   0.00571   1.92915
   A20        1.89983  -0.00089   0.00000  -0.01110  -0.01108   1.88875
   A21        1.96434  -0.00066   0.00000   0.00723   0.00685   1.97119
   A22        1.90055  -0.00132   0.00000  -0.02069  -0.02077   1.87979
   A23        1.90058   0.00081   0.00000   0.00763   0.00765   1.90823
   A24        1.87357   0.00105   0.00000   0.01019   0.01033   1.88390
   A25        1.89735  -0.00093   0.00000  -0.00954  -0.00955   1.88780
   A26        1.90991  -0.00004   0.00000   0.00072   0.00063   1.91053
   A27        1.91207   0.00112   0.00000   0.01850   0.01806   1.93013
   A28        1.89974  -0.00094   0.00000  -0.02081  -0.02090   1.87884
   A29        1.91371   0.00027   0.00000   0.00280   0.00293   1.91664
   A30        1.93070   0.00048   0.00000   0.00779   0.00779   1.93850
   A31        1.89035  -0.00136   0.00000  -0.01096  -0.01092   1.87943
   A32        1.92414   0.00044   0.00000   0.00349   0.00352   1.92766
   A33        1.91353   0.00144   0.00000   0.01947   0.01900   1.93252
   A34        1.89675  -0.00051   0.00000  -0.01488  -0.01496   1.88178
   A35        1.92294   0.00037   0.00000   0.00358   0.00371   1.92665
   A36        1.91594  -0.00041   0.00000  -0.00108  -0.00104   1.91490
   A37        1.91433   0.00033   0.00000   0.00381   0.00375   1.91808
   A38        1.90944   0.00025   0.00000  -0.00031  -0.00022   1.90922
   A39        1.92661   0.00057   0.00000   0.01365   0.01324   1.93985
   A40        1.88285  -0.00119   0.00000  -0.01981  -0.01983   1.86303
   A41        1.88638   0.00084   0.00000   0.01046   0.01043   1.89681
   A42        1.94349  -0.00082   0.00000  -0.00832  -0.00823   1.93526
   A43        1.91417   0.00038   0.00000   0.00418   0.00408   1.91826
   A44        1.91248   0.00019   0.00000  -0.00193  -0.00183   1.91065
   A45        1.92290   0.00050   0.00000   0.01537   0.01494   1.93784
   A46        1.88395  -0.00120   0.00000  -0.02010  -0.02012   1.86383
   A47        1.88629   0.00092   0.00000   0.01128   0.01124   1.89753
   A48        1.94336  -0.00080   0.00000  -0.00920  -0.00911   1.93425
   A49        1.93211   0.00012   0.00000   0.01388   0.01353   1.94564
   A50        1.94943   0.00043   0.00000   0.00677   0.00669   1.95611
   A51        1.94985   0.00050   0.00000   0.00714   0.00705   1.95690
   A52        1.91401   0.00176   0.00000   0.01901   0.01870   1.93270
   A53        1.90343  -0.00050   0.00000  -0.00215  -0.00213   1.90130
   A54        1.90423  -0.00054   0.00000  -0.00231  -0.00229   1.90193
   A55        1.90515   0.00239   0.00000   0.01457   0.01450   1.91965
   A56        1.90448   0.00239   0.00000   0.01457   0.01450   1.91898
   A57        1.96945   0.00045   0.00000   0.00242   0.00240   1.97185
   A58        1.89543  -0.00219   0.00000  -0.01263  -0.01275   1.88268
   A59        1.89404  -0.00161   0.00000  -0.00995  -0.00998   1.88406
   A60        1.89399  -0.00160   0.00000  -0.00993  -0.00996   1.88404
   A61        1.88168   0.00004   0.00000   0.01823   0.01739   1.89908
   A62        1.88536  -0.00075   0.00000  -0.02101  -0.02083   1.86453
   A63        2.02834   0.00024   0.00000   0.01021   0.00965   2.03799
   A64        1.87546  -0.00141   0.00000  -0.02448  -0.02423   1.85122
   A65        1.94417   0.00188   0.00000   0.02123   0.02092   1.96508
   A66        1.84240  -0.00027   0.00000  -0.00974  -0.00958   1.83281
   A67        1.91560  -0.00026   0.00000   0.01576   0.01537   1.93097
   A68        2.02968   0.00161   0.00000   0.01313   0.01310   2.04278
   A69        1.99742  -0.00057   0.00000  -0.00021  -0.00047   1.99696
    D1       -3.09652   0.00164   0.00000   0.05441   0.05429  -3.04224
    D2       -1.02895  -0.00019   0.00000   0.02306   0.02303  -1.00592
    D3        1.05722   0.00196   0.00000   0.05187   0.05186   1.10909
    D4       -1.01141   0.00007   0.00000   0.02496   0.02492  -0.98650
    D5        1.05617  -0.00176   0.00000  -0.00639  -0.00634   1.04982
    D6       -3.14085   0.00038   0.00000   0.02242   0.02249  -3.11836
    D7        1.11076   0.00118   0.00000   0.04335   0.04335   1.15411
    D8       -3.10485  -0.00065   0.00000   0.01199   0.01209  -3.09276
    D9       -1.01868   0.00150   0.00000   0.04081   0.04093  -0.97775
   D10        0.94689  -0.00112   0.00000  -0.03305  -0.03315   0.91374
   D11       -1.13734  -0.00121   0.00000  -0.04030  -0.04034  -1.17768
   D12       -1.14501  -0.00042   0.00000  -0.03163  -0.03168  -1.17669
   D13        3.05395  -0.00051   0.00000  -0.03888  -0.03887   3.01508
   D14        3.08287   0.00007   0.00000  -0.01660  -0.01664   3.06624
   D15        0.99865  -0.00002   0.00000  -0.02386  -0.02383   0.97482
   D16        1.06823  -0.00135   0.00000  -0.04191  -0.04216   1.02607
   D17       -2.91283  -0.00094   0.00000  -0.01451  -0.01450  -2.92733
   D18       -1.02734  -0.00108   0.00000  -0.04316  -0.04327  -1.07062
   D19        1.27478  -0.00068   0.00000  -0.01576  -0.01562   1.25916
   D20       -3.12784   0.00007   0.00000  -0.02197  -0.02202   3.13333
   D21       -0.82571   0.00047   0.00000   0.00543   0.00564  -0.82008
   D22        0.99345  -0.00002   0.00000  -0.02513  -0.02509   0.96835
   D23        3.07664  -0.00161   0.00000  -0.05383  -0.05372   3.02292
   D24       -1.13176  -0.00130   0.00000  -0.04400  -0.04398  -1.17575
   D25       -1.07068   0.00130   0.00000  -0.00086  -0.00087  -1.07155
   D26        1.01251  -0.00029   0.00000  -0.02956  -0.02949   0.98302
   D27        3.08729   0.00002   0.00000  -0.01973  -0.01976   3.06754
   D28        3.13217  -0.00009   0.00000  -0.01905  -0.01912   3.11305
   D29       -1.06782  -0.00167   0.00000  -0.04776  -0.04775  -1.11557
   D30        1.00696  -0.00137   0.00000  -0.03792  -0.03801   0.96895
   D31       -1.06291   0.00141   0.00000   0.04015   0.04033  -1.02258
   D32        2.90139  -0.00012   0.00000   0.00656   0.00668   2.90807
   D33        1.04265   0.00141   0.00000   0.04411   0.04417   1.08682
   D34       -1.27623  -0.00011   0.00000   0.01053   0.01051  -1.26572
   D35        3.13402   0.00024   0.00000   0.02359   0.02365  -3.12551
   D36        0.81514  -0.00129   0.00000  -0.00999  -0.01001   0.80513
   D37       -0.94073   0.00115   0.00000   0.03241   0.03249  -0.90824
   D38        1.14300   0.00127   0.00000   0.03977   0.03980   1.18280
   D39       -3.07887  -0.00020   0.00000   0.01488   0.01493  -3.06394
   D40       -0.99514  -0.00008   0.00000   0.02225   0.02223  -0.97290
   D41        1.14933   0.00035   0.00000   0.02969   0.02974   1.17907
   D42       -3.05012   0.00047   0.00000   0.03706   0.03704  -3.01308
   D43       -1.02251   0.00018   0.00000   0.02475   0.02467  -0.99784
   D44       -3.08452   0.00128   0.00000   0.04675   0.04665  -3.03786
   D45        1.05418   0.00176   0.00000   0.04839   0.04837   1.10255
   D46        1.05023  -0.00153   0.00000  -0.00560  -0.00558   1.04465
   D47       -1.01178  -0.00043   0.00000   0.01640   0.01640  -0.99538
[...]
 9,-0.00000008,0.00002274,0.00021327,0.00021924,-0.00003852,0.00046697,
 -0.00056041,-0.00132593,0.00006494,0.00074356,0.00003912,-0.00004288,0
 .00001960,0.00006056,0.00001500,0.00002779,0.00083944,0.00049914,0.000
 69074,-0.00007470,-0.00000617,0.00004601,0.00016907,-0.00004878,0.0000
 0610,-0.00054179,0.00046904,0.00015562,0.00007587,0.00008990,-0.000026
 71,0.00019658,0.00065412,0.00028607,0.00023384,0.00008959,-0.00057897,
 0.00271241,-0.00358977,-0.00370794,0.00004766,-0.00001137,0.00000159,-
 0.00001643,0.00000426,-0.00000067,0.04015036,-0.11211469,-0.10113588,-
 0.04677332,0.11433272,-0.00002450,0.00000584,0.00000397,-0.00000303,-0
 .00002597,-0.00004990,0.00000590,-0.00004754,0.00000840,-0.00001767,0.
 00001132,-0.00000198,0.00001092,0.00001334,0.00001865,-0.00000211,0.00
 001967,-0.00001393,-0.00000317,0.00000228,0.00000090,0.00000966,-0.000
 00428,0.00000659,0.00001032,0.00001680,0.00000952,-0.00000333,-0.00000
 441,0.00000389,0.00001182,0.00000435,-0.00000171,-0.00000190,-0.000000
 25,0.00000145,0.00005692,0.00056507,0.00059149,-0.00038877,-0.00003393
 ,0.00016231,-0.00093935,-0.00078454,-0.00032703,-0.00002225,-0.0000139
 3,-0.00002717,0.00012557,0.00001850,0.00000608,-0.00024395,0.00053397,
 0.00147205,0.00013578,-0.00003063,0.00003870,0.00006355,0.00000547,-0.
 00001095,-0.00008045,0.00054659,0.00077057,0.00003263,0.00001314,-0.00
 027782,-0.00014558,0.00013740,-0.00003225,-0.00035632,0.00009454,0.000
 47020,-0.00023882,0.00154565,0.00611518,0.00004354,-0.00000404,-0.0000
 0021,-0.00001354,0.00000316,0.00000003,0.08201630,-0.10253178,-0.26578
 684,-0.08791790,0.11354515,0.28218556,0.00003847,-0.00000534,0.0000020
 3,-0.00001202,-0.00011286,-0.00000547,0.00001911,-0.00000133,-0.000053
 00,0.00004815,-0.00000333,0.00001271,0.00001557,0.00002462,0.00002563,
 0.00000750,0.00001270,-0.00000971,-0.00001311,0.00000671,0.00001152,-0
 .00001336,0.00000470,-0.00001008,0.00001926,0.00003182,0.00002880,0.00
 000385,-0.00000114,-0.00000151,-0.00001092,-0.00000533,-0.00000149,-0.
 00001314,0.00000976,0.00000593,-0.00034950,-0.00236850,-0.00012046,0.0
 0014051,0.00036930,-0.00015550,-0.00729065,0.00417302,0.00158770,0.000
 02072,0.00007740,-0.00006844,-0.00083322,0.00012260,-0.00014467,0.0008
 6430,-0.00322437,-0.00111789,-0.00003513,-0.00001205,-0.00001982,0.000
 04045,0.00005897,0.00001019,0.00036244,0.00018404,-0.00035313,-0.00008
 554,-0.00046891,0.00032711,-0.00000750,0.00119061,0.00068514,-0.000066
 42,0.00039010,0.00036494,-0.02319951,-0.03896991,-0.00752918,-0.000050
 96,0.00002258,-0.00000069,0.00002075,-0.00000273,0.00000063,-0.1049095
 8,-0.09771568,-0.00873708,0.00681934,0.01207449,-0.00058905,0.12281542
 ,0.00003582,-0.00001028,-0.00000447,-0.00000385,-0.00006425,0.00002147
 ,0.00002899,0.00001932,-0.00002250,0.00003703,-0.00001330,0.00000107,0
 .00000361,0.00001419,0.00000518,0.00000702,-0.00000037,-0.00000248,-0.
 00000648,0.00000418,0.00000889,-0.00001332,0.00000457,-0.00001023,0.00
 000121,0.00000502,0.00001258,0.00000275,-0.00000088,-0.00000602,-0.000
 01080,-0.00000478,-0.00000108,-0.00000482,0.00000676,0.00000389,0.0003
 8202,0.00017791,0.00012949,-0.00000680,0.00076066,0.00037951,0.0006614
 0,0.00143153,-0.00003768,-0.00010398,0.00003754,-0.00003208,-0.0000558
 9,-0.00001964,0.00000845,0.00122451,-0.00012985,-0.00062903,0.00000654
 ,-0.00002457,-0.00001986,-0.00013135,0.00002337,0.00001567,0.00006974,
 0.00016228,0.00033173,0.00028369,0.00028640,-0.00001052,0.00034941,0.0
 0083762,0.00030031,-0.00006349,-0.00026627,0.00010608,0.00136396,0.007
 34829,-0.00068020,-0.00005352,0.00002018,0.00000099,0.00001926,-0.0000
 0337,0.00000056,-0.10832985,-0.29869141,-0.02452364,-0.00499774,-0.012
 16972,-0.00089556,0.11659939,0.31884476,0.00001822,-0.00000352,-0.0000
 0366,0.00000441,-0.00003295,0.00003905,0.00000726,0.00003807,-0.000027
 68,0.00001758,-0.00001190,0.00000522,-0.00000182,-0.00000122,-0.000008
 95,0.00000340,-0.00000036,0.00000474,-0.00000027,-0.00000003,0.0000023
 4,-0.00000963,0.00000288,-0.00000656,-0.00000184,-0.00000716,0.0000011
 2,0.00000184,0.00000079,0.00000061,-0.00000962,-0.00000277,-0.00000051
 ,-0.00000109,0.00000248,0.00000040,-0.00008648,-0.00025067,0.00063699,
 -0.00000001,-0.00001309,0.00001386,-0.00044214,0.00007527,0.00018252,0
 .00011400,0.00001598,-0.00000668,-0.00009659,-0.00001081,-0.00003460,0
 .00095232,0.00097572,0.00004512,-0.00004340,0.00001992,-0.00004057,-0.
 00001561,0.00002185,-0.00000181,-0.00019752,0.00046351,0.00047255,-0.0
 0037064,-0.00059174,0.00028893,0.00049499,-0.00012114,0.00021914,-0.00
 004574,0.00007541,0.00003458,-0.00196549,-0.00420599,-0.00122801,-0.00
 002753,0.00000868,-0.00000119,0.00001047,-0.00000229,0.00000018,-0.010
 40338,-0.02357331,-0.06387914,-0.01421099,-0.02896753,-0.00067749,0.01
 388583,0.02749914,0.05977570,0.00005176,-0.00000991,-0.00000755,0.0000
 1333,-0.00001486,0.00004452,0.00001009,0.00006769,-0.00005403,0.000039
 38,-0.00001729,-0.00000079,-0.00000236,0.00000103,-0.00000973,0.000011
 71,-0.00002301,0.00000647,-0.00000336,0.00000189,0.00000591,-0.0000157
 3,0.00000515,-0.00001071,-0.00000561,-0.00000964,0.00000683,0.00000458
 ,-0.00000154,0.00000242,-0.00001994,-0.00000883,0.00000070,-0.00000334
 ,0.00000737,0.00000275,-0.00018105,-0.00057281,0.00028316,-0.00012323,
 -0.00004475,0.00065387,0.00307254,0.00616733,-0.00081011,0.00030099,-0
 .00013906,0.00019850,-0.00027594,-0.00012196,0.00010392,0.00261434,-0.
 00161313,-0.00598906,0.00029874,-0.00015820,0.00017011,-0.00025571,-0.
 00004452,0.00014918,-0.00021797,-0.00049154,-0.00008442,0.00041390,-0.
 00157993,0.00140891,-0.00018587,0.00025485,0.00045888,0.00042983,-0.00
 078183,0.00193979,-0.02934967,0.02563843,-0.03385494,-0.00007325,0.000
 01001,0.00000887,0.00002439,-0.00000466,0.00000049,-0.07552600,0.03174
 794,-0.04432358,0.00448578,-0.00788843,0.00865719,0.00533241,-0.007382
 52,0.01255989,0.08891483,-0.00003857,-0.00000149,0.00000602,-0.0000058
 1,0.00001599,-0.00000837,-0.00001457,-0.00004713,0.00004593,-0.0000241
 9,0.00000963,0.00000941,-0.00000329,-0.00000661,-0.00000382,-0.0000043
 9,0.00001262,0.00000049,0.00000490,-0.00000290,-0.00000423,0.00000745,
 -0.00000191,0.00000384,0.00000118,0.00000356,-0.00000777,-0.00000413,0
 .00000556,-0.00000556,0.00001361,0.00000750,-0.00000081,0.00000323,-0.
 00000712,-0.00000356,-0.00011103,0.00026975,-0.00017708,0.00014934,0.0
 0009313,-0.00049616,-0.00049109,0.00115022,-0.00225307,-0.00016722,-0.
 00011164,-0.00001331,0.00012158,0.00002170,0.00001114,-0.00077389,0.00
 041017,0.00211385,-0.00023305,0.00006655,-0.00008075,0.00013741,-0.000
 03167,-0.00003356,0.00008407,0.00009607,0.00006342,0.00104852,0.001170
 59,0.00038800,-0.00014091,-0.00018547,0.00018933,0.00040280,-0.0000540
 4,-0.00091433,0.00866054,0.00015712,0.00258789,0.00004857,0.00000005,-
 0.00001391,-0.00001624,0.00000276,-0.00000042,0.03157182,-0.14588128,0
 .11108209,-0.00489387,0.01114148,-0.01266965,0.00771922,-0.01855926,0.
 02851217,-0.04302225,0.15023493,0.00004906,0.00000211,-0.00001040,0.00
 000879,0.00000322,0.00002020,0.00001616,0.00008032,-0.00005829,0.00002
 417,-0.00001292,-0.00001297,-0.00000199,0.00000259,-0.00000480,0.00000
 495,-0.00002497,0.00000742,-0.00000315,0.00000163,0.00000416,-0.000009
 55,0.00000161,-0.00000466,-0.00000848,-0.00001639,-0.00000019,0.000005
 06,-0.00000404,0.00001164,-0.00001933,-0.00001009,0.00000152,-0.000000
 26,0.00000655,0.00000282,-0.00013314,-0.00048994,0.00032549,0.00011040
 ,-0.00011173,0.00045472,0.00090042,0.00128249,0.00048066,0.00028198,-0
 .00002345,0.00007142,-0.00017634,-0.00003850,-0.00002620,0.00054447,-0
 .00188619,0.00167439,0.00022700,-0.00007474,-0.00010199,-0.00015087,0.
 00004051,0.00001614,0.00013299,0.00011774,-0.00028054,-0.00089638,-0.0
 0118872,0.00004412,-0.00000979,0.00014942,-0.00002879,-0.00116435,0.00
 097349,0.00125223,-0.00971260,0.00119360,0.00155827,-0.00006172,-0.000
 00594,0.00001953,0.00002000,-0.00000300,-0.00000028,-0.04409352,0.1110
 8678,-0.22015499,-0.00667511,0.01918546,-0.02460392,0.00218327,-0.0018
 8164,0.00425684,0.05857450,-0.12839315,0.23511264,0.00003881,-0.000778
 91,0.00113785,-0.01106639,0.01352999,-0.00808795,-0.03084735,-0.004038
 86,0.00673984,-0.00037421,-0.00183098,-0.00042149,0.00229759,-0.000671
 79,0.00513245,0.00012215,-0.00219173,0.00122213,-0.00020947,0.00015762
 ,-0.00020101,0.00107651,-0.00035603,0.00048997,0.00300876,0.00408663,0
 .00071793,0.00047816,0.00285827,-0.00238226,0.00028367,0.00051298,0.00
 008063,-0.00017108,-0.00008766,0.00011235,-0.10776226,0.01443584,0.028
 37449,-0.11452670,-0.04916602,-0.01028983,-0.02155614,0.02078168,0.030
 67243,0.00277812,-0.00325752,-0.00502540,0.00938551,-0.00973485,-0.016
 76613,-0.02425838,-0.03312485,-0.00773536,0.00314733,0.00551958,0.0013
 2054,0.00709012,0.01405541,0.00340870,-0.00589316,0.00038009,-0.001410
 75,0.00185787,-0.00046090,0.00083666,-0.00543639,0.00186360,-0.0004491
 1,0.00174086,-0.00065970,0.00051075,0.00615494,-0.00042208,0.00009517,
 0.00081216,0.00010084,-0.00065490,-0.00057743,0.00008420,-0.00003010,-
 0.00120620,0.00002692,0.00010151,0.00043343,-0.00007991,-0.00022477,0.
 00045067,0.00020354,-0.00002181,0.00041860,-0.00017143,0.00020783,0.57
 930977,0.00056507,-0.00307166,0.00543187,0.02071097,-0.00405434,-0.005
 41672,-0.03588340,0.00717045,-0.00450046,-0.00213183,-0.00681595,0.001
 62657,-0.00130219,0.00051343,-0.00090204,0.00056053,-0.00086077,0.0004
 0405,-0.00023223,0.00004218,-0.00009593,0.00178175,-0.00016581,0.00003
 669,-0.00116244,-0.00132808,-0.00015533,-0.00165443,0.00020342,0.00032
 782,-0.00186838,0.00079966,0.00043963,0.00010163,0.00020115,0.00012858
 ,0.01419606,-0.12514841,-0.03974835,-0.04100515,-0.19441332,-0.0149824
 3,0.00734884,0.00034412,-0.00160493,-0.01014120,0.01167057,0.01794020,
 0.01644548,-0.01565246,-0.02797585,-0.00250052,0.01472686,0.00258700,-
 0.01251007,-0.02024941,-0.00468480,-0.00892604,-0.01541065,-0.00148879
 ,-0.00112303,0.00074462,0.00019769,-0.00019098,-0.00067408,-0.00048665
 ,0.00563169,-0.00014487,0.00094859,0.00200007,-0.00042266,0.00061640,-
 0.00067594,-0.00129593,-0.00076346,-0.00004488,0.00056133,-0.00052568,
 0.00003978,0.00002338,0.00004016,-0.00026142,-0.00093635,-0.00078487,0
 .00045277,-0.00016991,-0.00017440,-0.00046134,-0.00020361,0.00006583,0
 .00007970,0.00000003,0.00013162,0.00691851,0.60966725,-0.00073716,0.00
 235778,-0.00547250,-0.03579736,0.00427090,-0.00255440,0.00470272,-0.00
 984899,-0.00065439,0.00175850,0.00415901,-0.00155892,-0.00099915,0.000
 11828,-0.00034688,0.00075826,-0.00002191,0.00139117,0.00004311,0.00011
 369,0.00014271,-0.00130933,0.00058579,0.00073603,-0.00112192,0.0004337
 5,0.00036519,0.00238854,0.00161270,-0.00090792,0.00155779,0.00003841,0
 .00031961,-0.00032003,0.00002415,0.00009404,0.02659943,-0.03877478,-0.
 17321844,-0.00895330,-0.01445921,-0.10284160,0.00366179,0.00556973,0.0
 1194858,0.01513799,-0.01674074,-0.02557369,0.00131597,-0.00056453,-0.0
 0268123,-0.00453081,-0.00372393,0.00110015,0.01696198,0.02822059,0.005
 97614,-0.01716304,-0.02939504,-0.00526330,-0.00519613,0.00103396,-0.00
 020988,-0.00226662,0.00098981,-0.00050504,-0.00041314,0.00043269,0.000
 18880,-0.00081893,-0.00040112,-0.00091131,0.00010003,-0.00072962,-0.00
 093707,-0.00014841,-0.00031802,0.00001266,-0.00011767,0.00006203,0.000
 03715,0.00032156,-0.00086713,-0.00036913,0.00029172,0.00001071,-0.0001
 9447,-0.00038959,-0.00013312,-0.00010305,-0.00014738,0.00015931,-0.000
 11584,0.01531828,-0.07977190,0.63934962,0.00002057,0.00109209,-0.00220
 751,-0.00711217,-0.00112235,0.00278958,0.00021900,0.00218404,-0.003383
 83,-0.00001884,0.00033561,-0.00016952,-0.00012162,-0.00005301,-0.00053
 604,0.00027856,0.00018246,0.00019832,0.00000333,0.00002304,0.00007937,
 -0.00078543,0.00018712,0.00011084,-0.00011491,-0.00046799,0.00021967,-
 0.00107322,-0.00081740,0.00072547,0.00006707,-0.00005697,0.00002635,0.
 00003399,0.00001637,-0.00000519,0.00201192,-0.00800069,0.01222619,0.00
 182877,-0.01141633,0.01492136,0.00090264,-0.00130929,0.00089019,-0.000
 89582,0.00170469,0.00264347,0.00032756,0.00021643,-0.00069980,0.000931
 46,-0.00052232,0.00166331,-0.00162133,-0.00360815,-0.00078547,0.000483
 55,0.00086293,-0.00039809,0.00017724,0.00006506,-0.00012986,-0.0002727
 8,0.00039748,-0.00011324,0.00019293,0.00008697,-0.00012227,-0.00034745
 ,0.00001418,-0.00044318,-0.00023598,0.00037074,-0.00055648,0.00016128,
 -0.00027199,0.00029561,0.00003261,-0.00001611,0.00000572,-0.00000631,-
 0.00005299,0.00006816,-0.00000900,0.00000521,-0.00000315,-0.00000969,0
 .00000166,-0.00000409,-0.00003789,0.00002083,-0.00002297,-0.06207800,0
 .01223384,-0.01817012,0.08306019,-0.00036793,-0.00022249,0.00065845,0.
 00092424,0.00096085,-0.00141207,-0.00281081,0.00007968,-0.00005740,0.0
 0014676,0.00009003,-0.00036460,0.00023438,0.00002926,0.00034790,-0.000
 21132,0.00010691,-0.00024763,-0.00000136,-0.00000998,-0.00001741,0.000
 22009,-0.00006621,-0.00003523,0.00009338,0.00013999,-0.00006726,-0.000
 91854,0.00089691,-0.00077319,0.00003506,-0.00000427,-0.00000291,0.0000
 4452,-0.00004034,-0.00001426,-0.00103130,0.01140186,-0.01766645,0.0020
 6097,-0.02241629,0.02860765,-0.00072106,0.00058809,0.00054261,0.002249
 50,-0.00119944,-0.00374498,-0.00070299,0.00110185,0.00085879,0.0016949
 2,0.00080295,0.00144251,-0.00380041,-0.00553341,-0.00169464,0.00098370
 ,0.00104912,-0.00025034,-0.00037660,-0.00000458,-0.00001732,-0.0000364
 0,0.00001263,0.00000385,0.00031776,0.00030242,-0.00056128,-0.00095033,
 0.00088712,-0.00087350,-0.00019443,-0.00000049,-0.00039864,-0.00007946
 ,0.00035045,-0.00031778,-0.00003029,0.00002244,-0.00001895,-0.00000835
 ,0.00003644,0.00008952,-0.00002385,0.00000162,-0.00000783,0.00001631,0
 .00001567,0.00000319,-0.00002155,0.00003148,-0.00001969,0.01868662,-0.
 14738673,0.12498611,-0.01889002,0.16331326,0.00048034,0.00052262,-0.00
 060346,-0.00108298,-0.00052118,0.00208175,0.00199603,0.00094780,-0.000
 46730,-0.00038070,-0.00028481,0.00053467,0.00018082,-0.00008409,0.0001
 1725,0.00008505,-0.00010966,0.00000770,-0.00007856,0.00002152,0.000040
 25,-0.00022675,0.00003845,0.00004145,-0.00014968,-0.00014449,-0.000067
 90,0.00040833,-0.00078523,0.00134324,-0.00007258,0.00000369,-0.0000088
 0,0.00005639,-0.00000999,-0.00003094,-0.00173408,0.01797985,-0.0280362
 4,0.00073069,-0.00446668,0.00599095,-0.00150255,0.00170035,-0.00010819
 ,0.00296865,-0.00389581,-0.00417615,-0.00086387,-0.00036835,0.00107488
 ,0.00002836,0.00042595,-0.00039274,-0.00113764,-0.00166516,0.00105904,
 0.00031862,0.00057317,0.00113107,-0.00010709,-0.00045109,0.00056036,0.
 00108545,-0.00069163,0.00118644,0.00028524,-0.00018482,0.00026314,0.00
 042569,-0.00036619,0.00042670,0.00029830,-0.00042577,0.00034715,0.0002
 9073,-0.00049472,0.00035523,0.00001226,-0.00001800,0.00000692,-0.00000
 723,0.00010317,-0.00002790,-0.00000774,0.00000713,0.00002023,0.0000314
 4,-0.00000589,0.00000676,0.00004236,-0.00002865,0.00005083,-0.02538535
 ,0.12514827,-0.24119945,0.02654579,-0.13651408,0.26200988,-0.01584389,
 0.02502893,-0.04461585,-0.13706243,0.00339626,-0.04319618,-0.15777723,
 -0.07069508,-0.00417173,-0.02915274,-0.04391781,0.01129119,0.00203720,
 -0.00138379,-0.00647539,0.01120393,-0.00939674,0.02231888,0.00288612,-
 0.00122856,-0.00046691,-0.00973544,0.00239657,0.00041596,-0.00085367,-
 0.01097571,-0.00374665,0.00728583,0.01053993,-0.00139092,-0.00933180,0
 .00212525,0.00020172,0.00318336,-0.00066290,-0.00068568,-0.03170054,0.
 00656588,-0.00246480,-0.03239074,0.00340457,-0.00382595,0.00095964,0.0
 0294575,0.00680478,0.00098961,-0.00111780,-0.00000563,0.00132980,0.000
 54423,-0.00049914,-0.00007725,-0.00614972,0.00044665,0.00103401,0.0004
 6267,0.00075835,0.00178018,0.00157028,-0.00001437,-0.00245718,0.000331
 75,-0.00043006,-0.00001111,0.00011224,-0.00046609,-0.00204439,0.000180
 42,-0.00023777,0.00020068,0.00026399,-0.00018046,-0.00033514,0.0000299
 1,0.00002883,0.00971653,-0.00063113,0.00124540,-0.00010795,-0.00014888
 ,-0.00013256,0.00084367,-0.00012196,0.00012566,-0.00009920,0.00013138,
 0.00003952,-0.00011866,-0.00011714,-0.00011453,-0.00016028,0.00012087,
 -0.00015149,-0.23492186,0.03300875,0.00768241,-0.01599224,0.00346881,-
 0.00353374,0.63672318,0.00700817,-0.00564794,0.01135330,0.00862309,-0.
 12015389,0.08643938,-0.05114202,-0.19877177,0.01990074,0.00041235,0.00
 759494,-0.00076129,-0.00554027,0.01343727,-0.00705840,0.01333265,-0.01
 554420,0.03096686,-0.00197061,0.00082345,0.00090111,0.00192481,0.00117
 196,0.00017237,-0.02562685,-0.03739209,0.00408189,-0.01214119,-0.01964
 550,0.00608865,0.00334487,0.00019237,-0.00098538,-0.00008908,0.0018212
 5,0.00092937,0.02115532,-0.00030179,0.00407105,-0.03597793,0.01109741,
 -0.00384649,-0.00008594,-0.00299703,-0.00522380,-0.00042103,0.00052392
 ,-0.00038803,-0.00113600,0.00107305,0.00195230,-0.00090422,-0.00858863
 ,-0.00058868,0.00135320,0.00124744,0.00071052,0.00044632,0.00266642,0.
 00125771,0.00180153,0.00011778,0.00011077,-0.00038152,0.00035484,-0.00
 011973,-0.00232048,0.00056529,-0.00028101,-0.00025631,0.00045133,-0.00
 034125,0.00003536,0.00108516,0.00032099,-0.00141217,0.00086794,-0.0003
 0592,0.00052924,-0.00038391,0.00011939,0.00010998,0.00046155,0.0004052
 5,-0.00026116,0.00010088,0.00014648,0.00026447,0.00016133,0.00001561,-
 0.00002915,-0.00001038,-0.00007403,0.00283089,-0.10826347,0.02057062,0
 .02660487,-0.00533682,0.00404432,0.04991879,0.47722184,-0.00355559,0.0
 0203335,-0.00054257,-0.03232652,0.04554340,-0.19717528,0.00588013,0.05
 358086,-0.09492075,0.00337937,0.00208062,0.00044082,-0.01738251,0.0192
 7488,-0.04414244,-0.00309220,0.00685532,-0.00905773,0.00004209,0.00042
 688,0.00211232,0.00127820,-0.00098696,0.00064339,-0.01472907,-0.018151
 32,0.01074712,0.02029224,0.03062128,-0.00602363,0.00012238,-0.00001953
 ,0.00140229,-0.00124000,0.00129392,0.00062373,0.03055054,-0.00274942,0
 .01027373,-0.00205790,0.00091258,0.00037946,0.00028172,-0.00324532,-0.
 00701220,-0.00148276,0.00117410,0.00168704,-0.00135680,0.00080292,0.00
 138610,0.00037011,-0.00060741,-0.00042308,-0.00021992,-0.00076817,0.00
 037075,-0.00030111,0.00160684,0.00097054,0.00200820,-0.00037067,0.0005
 7470,0.00053730,-0.00038921,0.00063594,-0.00029563,-0.00014142,0.00045
 285,0.00049475,-0.00029985,0.00058100,-0.00054402,0.00029456,0.0008021
 8,0.00028846,-0.00014775,0.00077652,0.00071637,-0.00001503,-0.00026010
 ,-0.00002876,0.00039206,0.00011834,-0.00018071,0.00004841,0.00011989,0
 .00014391,0.00007099,0.00003327,0.00001310,-0.00006471,0.00003882,-0.0
 1739331,0.02799163,-0.09604331,-0.03565861,0.00753685,-0.00353681,0.06
 544655,-0.17458469,0.42396705\\-0.00001806,0.00000085,-0.00000523,0.00
 001663,-0.00000978,0.00000766,0.00001014,0.00001002,0.00000307,-0.0000
 1700,-0.00001326,-0.00000572,-0.00000167,0.00000248,-0.00000412,-0.000
 00655,0.00000067,0.00000045,-0.00000292,-0.00000039,-0.00000023,0.0000
 1019,0.00000248,0.00000255,-0.00000509,-0.00000112,0.00000274,-0.00000
 630,0.00000117,-0.00000353,0.00000453,-0.00000192,0.00000607,-0.000000
 31,-0.00000096,-0.00000625,-0.00000094,0.00000148,-0.00000499,-0.00000
 822,0.00000558,-0.00000038,0.00001224,0.00000508,0.00000072,0.00000082
 ,-0.00000080,0.00000096,0.00001064,0.00000674,-0.00000056,0.00001311,-
 0.00000862,-0.00000658,-0.00000295,0.00000045,-0.00000418,0.00000552,-
 0.00000222,-0.00000580,-0.00000101,0.00000330,0.00000496,-0.00000093,-
 0.00000412,-0.00000178,-0.00000247,-0.00000619,-0.00000090,0.00000003,
 0.00000243,0.00000329,-0.00000413,-0.00000042,0.00000331,0.00001161,0.
 00000262,-0.00000079,0.00000034,0.00000635,0.00001112,-0.00001097,0.00
 000075,-0.00000199,-0.00000201,0.00000029,0.00000291,-0.00000284,-0.00
 000272,0.00000072,0.00000036,0.00000018,-0.00000033,0.00000760,-0.0000
 0858,0.00000027,-0.00000125,0.00000368,0.00000151,-0.00000812,0.000004
 49,0.00000107\\\@
 Job cpu time:       0 days  3 hours 39 minutes 59.4 seconds.
 Elapsed time:       0 days  0 hours 39 minutes 11.8 seconds.
 File lengths (MBytes):  RWF= 113996 Int=      0 D2E=      0 Chk=     57 Scr=      1
 Normal termination of Gaussian 16 at Thu Jan 26 20:47:48 2023.
