 Entering Gaussian System, Link 0=/home/artemiy/opt/gaussian/g16/g16
 Input=1-Naphthalenol_B3LYP.gjf
 Output=1-Naphthalenol_B3LYP.log
 Initial command:
 /home/artemiy/opt/gaussian/g16/l1.exe "/home/artemiy/opt/gaussian/scr/Gau-3327.inp" -scrdir="/home/artemiy/opt/gaussian/scr/"
 Entering Link 1 = /home/artemiy/opt/gaussian/g16/l1.exe PID=      3330.
  
 Copyright (c) 1988,1990,1992,1993,1995,1998,2003,2009,2016,
            Gaussian, Inc.  All Rights Reserved.
  
 This is part of the Gaussian(R) 16 program.  It is based on
 the Gaussian(R) 09 system (copyright 2009, Gaussian, Inc.),
 the Gaussian(R) 03 system (copyright 2003, Gaussian, Inc.),
 the Gaussian(R) 98 system (copyright 1998, Gaussian, Inc.),
 the Gaussian(R) 94 system (copyright 1995, Gaussian, Inc.),
 the Gaussian 92(TM) system (copyright 1992, Gaussian, Inc.),
 the Gaussian 90(TM) system (copyright 1990, Gaussian, Inc.),
 the Gaussian 88(TM) system (copyright 1988, Gaussian, Inc.),
 the Gaussian 86(TM) system (copyright 1986, Carnegie Mellon
 University), and the Gaussian 82(TM) system (copyright 1983,
 Carnegie Mellon University). Gaussian is a federally registered
 trademark of Gaussian, Inc.
  
 This software contains proprietary and confidential information,
 including trade secrets, belonging to Gaussian, Inc.
  
 This software is provided under written license and may be
 used, copied, transmitted, or stored only in accord with that
 written license.
  
 The following legend is applicable only to US Government
 contracts under FAR:
  
                    RESTRICTED RIGHTS LEGEND
  
 Use, reproduction and disclosure by the US Government is
 subject to restrictions as set forth in subparagraphs (a)
 and (c) of the Commercial Computer Software - Restricted
 Rights clause in FAR 52.227-19.
  
 Gaussian, Inc.
 340 Quinnipiac St., Bldg. 40, Wallingford CT 06492
  
  
 ---------------------------------------------------------------
 Warning -- This program may not be used in any manner that
 competes with the business of Gaussian, Inc. or will provide
 assistance to any competitor of Gaussian, Inc.  The licensee
 of this program is prohibited from giving any competitor of
 Gaussian, Inc. access to this program.  By using this program,
 the user acknowledges that Gaussian, Inc. is engaged in the
 business of creating and licensing software in the field of
 computational chemistry and represents and warrants to the
 licensee that it is not a competitor of Gaussian, Inc. and that
 it will not use this program in any manner prohibited above.
 ---------------------------------------------------------------
  

 Cite this work as:
 Gaussian 16, Revision A.03,
 M. J. Frisch, G. W. Trucks, H. B. Schlegel, G. E. Scuseria, 
 M. A. Robb, J. R. Cheeseman, G. Scalmani, V. Barone, 
 G. A. Petersson, H. Nakatsuji, X. Li, M. Caricato, A. V. Marenich, 
 J. Bloino, B. G. Janesko, R. Gomperts, B. Mennucci, H. P. Hratchian, 
 J. V. Ortiz, A. F. Izmaylov, J. L. Sonnenberg, D. Williams-Young, 
 F. Ding, F. Lipparini, F. Egidi, J. Goings, B. Peng, A. Petrone, 
 T. Henderson, D. Ranasinghe, V. G. Zakrzewski, J. Gao, N. Rega, 
 G. Zheng, W. Liang, M. Hada, M. Ehara, K. Toyota, R. Fukuda, 
 J. Hasegawa, M. Ishida, T. Nakajima, Y. Honda, O. Kitao, H. Nakai, 
 T. Vreven, K. Throssell, J. A. Montgomery, Jr., J. E. Peralta, 
 F. Ogliaro, M. J. Bearpark, J. J. Heyd, E. N. Brothers, K. N. Kudin, 
 V. N. Staroverov, T. A. Keith, R. Kobayashi, J. Normand, 
 K. Raghavachari, A. P. Rendell, J. C. Burant, S. S. Iyengar, 
 J. Tomasi, M. Cossi, J. M. Millam, M. Klene, C. Adamo, R. Cammi, 
 J. W. Ochterski, R. L. Martin, K. Morokuma, O. Farkas, 
 J. B. Foresman, and D. J. Fox, Gaussian, Inc., Wallingford CT, 2016.
 
 ******************************************
 Gaussian 16:  ES64L-G16RevA.03 25-Dec-2016
                20-Jul-2021 
 ******************************************
 %mem=4GB
 %nprocshared=4
 Will use up to    4 processors via shared memory.
 ----------------------------------------------------------------------
 # opt=(tight) freq B3LYP/6-311++G(3df,3pd) nosymm int=ultrafinegrid sc
 f=(tight,ssd,noincfock,xqc,fdiag,novaracc)
 ----------------------------------------------------------------------
 1/7=10,18=20,19=15,26=4,38=1/1,3;
 2/9=110,12=2,15=1,17=6,18=5,40=1/2;
 3/5=4,6=6,7=1616,11=2,25=1,30=1,71=1,74=-5,75=-5/1,2,3;
 4//1;
 5/5=100002,16=1,32=2,38=1/2;
 6/7=2,8=2,9=2,10=2,28=1/1;
 7/30=1/1,2,3,16;
 1/7=10,18=20,19=15,26=4/3(2);
 2/9=110,15=1/2;
 99//99;
 2/9=110,15=1/2;
 3/5=4,6=6,7=1616,11=2,25=1,30=1,71=1,74=-5,75=-5/1,2,3;
 4/5=5,16=3,69=1/1;
 5/5=100002,16=1,32=2,38=1/2;
 7/30=1/1,2,3,16;
 1/7=10,18=20,19=15,26=4/3(-5);
 2/9=110,15=1/2;
 6/7=2,8=2,9=2,10=2,19=2,28=1/1;
 99/9=1/99;
 -------------------
 CAS 222-222-222
 -------------------
 Symbolic Z-matrix:
 Charge =  0 Multiplicity = 1
 C                    -2.73381  -0.25648   0.00001 
 C                    -1.79308  -1.24823   0.00003 
 C                    -0.41637  -0.94181   0.00002 
 C                    -0.0285    0.42225  0. 
 C                    -1.01822   1.42456  -0.00002 
 C                    -2.34401   1.09106  -0.00002 
 H                    -3.10005   1.86253  -0.00004 
 H                    -0.70187   2.45618  -0.00002 
 C                     1.35719   0.73754  -0.00001 
 C                     2.29413  -0.26533  -0.00002 
 C                     1.8985   -1.60984  -0.00001 
 C                     0.57496  -1.94578   0.00001 
 H                     0.26879  -2.98147  -0.00001 
 H                     2.65906  -2.37669  -0.00004 
 H                     3.34821  -0.01823  -0.00001 
 O                     1.70482   2.05401   0.00003 
 H                     2.66639   2.13307   0.00005 
 H                    -2.09028  -2.28746   0.00002 
 H                    -3.78561  -0.50407   0. 
 

 GradGradGradGradGradGradGradGradGradGradGradGradGradGradGradGradGradGrad
 Berny optimization.
 Initialization pass.
                           ----------------------------
                           !    Initial Parameters    !
                           ! (Angstroms and Degrees)  !
 --------------------------                            --------------------------
 ! Name  Definition              Value          Derivative Info.                !
 --------------------------------------------------------------------------------
 ! R1    R(1,2)                  1.3669         estimate D2E/DX2                !
 ! R2    R(1,6)                  1.4028         estimate D2E/DX2                !
 ! R3    R(1,19)                 1.0805         estimate D2E/DX2                !
 ! R4    R(2,3)                  1.4104         estimate D2E/DX2                !
 ! R5    R(2,18)                 1.0809         estimate D2E/DX2                !
 ! R6    R(3,4)                  1.4181         estimate D2E/DX2                !
 ! R7    R(3,12)                 1.4109         estimate D2E/DX2                !
 ! R8    R(4,5)                  1.4086         estimate D2E/DX2                !
 ! R9    R(4,9)                  1.4211         estimate D2E/DX2                !
 ! R10   R(5,6)                  1.3671         estimate D2E/DX2                !
 ! R11   R(5,8)                  1.079          estimate D2E/DX2                !
 ! R12   R(6,7)                  1.0802         estimate D2E/DX2                !
 ! R13   R(9,10)                 1.3724         estimate D2E/DX2                !
 ! R14   R(9,16)                 1.3616         estimate D2E/DX2                !
 ! R15   R(10,11)                1.4015         estimate D2E/DX2                !
 ! R16   R(10,15)                1.0827         estimate D2E/DX2                !
 ! R17   R(11,12)                1.3655         estimate D2E/DX2                !
 ! R18   R(11,14)                1.08           estimate D2E/DX2                !
 ! R19   R(12,13)                1.08           estimate D2E/DX2                !
 ! R20   R(16,17)                0.9648         estimate D2E/DX2                !
 ! A1    A(2,1,6)              120.3791         estimate D2E/DX2                !
 ! A2    A(2,1,19)             120.242          estimate D2E/DX2                !
 ! A3    A(6,1,19)             119.3789         estimate D2E/DX2                !
 ! A4    A(1,2,3)              120.9399         estimate D2E/DX2                !
 ! A5    A(1,2,18)             120.5527         estimate D2E/DX2                !
 ! A6    A(3,2,18)             118.5074         estimate D2E/DX2                !
 ! A7    A(2,3,4)              118.4211         estimate D2E/DX2                !
 ! A8    A(2,3,12)             122.0892         estimate D2E/DX2                !
 ! A9    A(4,3,12)             119.4897         estimate D2E/DX2                !
 ! A10   A(3,4,5)              119.4885         estimate D2E/DX2                !
 ! A11   A(3,4,9)              118.6914         estimate D2E/DX2                !
 ! A12   A(5,4,9)              121.8201         estimate D2E/DX2                !
 ! A13   A(4,5,6)              120.5186         estimate D2E/DX2                !
 ! A14   A(4,5,8)              118.313          estimate D2E/DX2                !
 ! A15   A(6,5,8)              121.1684         estimate D2E/DX2                !
 ! A16   A(1,6,5)              120.2528         estimate D2E/DX2                !
 ! A17   A(1,6,7)              119.4456         estimate D2E/DX2                !
 ! A18   A(5,6,7)              120.3017         estimate D2E/DX2                !
 ! A19   A(4,9,10)             120.2353         estimate D2E/DX2                !
 ! A20   A(4,9,16)             117.6104         estimate D2E/DX2                !
 ! A21   A(10,9,16)            122.1543         estimate D2E/DX2                !
 ! A22   A(9,10,11)            120.5498         estimate D2E/DX2                !
 ! A23   A(9,10,15)            119.8604         estimate D2E/DX2                !
 ! A24   A(11,10,15)           119.5898         estimate D2E/DX2                !
 ! A25   A(10,11,12)           120.6388         estimate D2E/DX2                !
 ! A26   A(10,11,14)           118.839          estimate D2E/DX2                !
 ! A27   A(12,11,14)           120.5222         estimate D2E/DX2                !
 ! A28   A(3,12,11)            120.395          estimate D2E/DX2                !
 ! A29   A(3,12,13)            118.8938         estimate D2E/DX2                !
 ! A30   A(11,12,13)           120.7112         estimate D2E/DX2                !
 ! A31   A(9,16,17)            109.4923         estimate D2E/DX2                !
 ! D1    D(6,1,2,3)              0.0001         estimate D2E/DX2                !
 ! D2    D(6,1,2,18)          -179.998          estimate D2E/DX2                !
 ! D3    D(19,1,2,3)           179.9992         estimate D2E/DX2                !
 ! D4    D(19,1,2,18)            0.0012         estimate D2E/DX2                !
 ! D5    D(2,1,6,5)             -0.0009         estimate D2E/DX2                !
 ! D6    D(2,1,6,7)           -179.9997         estimate D2E/DX2                !
 ! D7    D(19,1,6,5)           180.0            estimate D2E/DX2                !
 ! D8    D(19,1,6,7)             0.0011         estimate D2E/DX2                !
 ! D9    D(1,2,3,4)              0.0006         estimate D2E/DX2                !
 ! D10   D(1,2,3,12)          -179.9987         estimate D2E/DX2                !
 ! D11   D(18,2,3,4)           179.9987         estimate D2E/DX2                !
 ! D12   D(18,2,3,12)           -0.0006         estimate D2E/DX2                !
 ! D13   D(2,3,4,5)             -0.0005         estimate D2E/DX2                !
 ! D14   D(2,3,4,9)            179.9997         estimate D2E/DX2                !
 ! D15   D(12,3,4,5)           179.9988         estimate D2E/DX2                !
 ! D16   D(12,3,4,9)            -0.001          estimate D2E/DX2                !
 ! D17   D(2,3,12,11)          179.9995         estimate D2E/DX2                !
 ! D18   D(2,3,12,13)            0.0013         estimate D2E/DX2                !
 ! D19   D(4,3,12,11)            0.0002         estimate D2E/DX2                !
 ! D20   D(4,3,12,13)         -179.998          estimate D2E/DX2                !
 ! D21   D(3,4,5,6)             -0.0003         estimate D2E/DX2                !
 ! D22   D(3,4,5,8)            179.9993         estimate D2E/DX2                !
 ! D23   D(9,4,5,6)            179.9995         estimate D2E/DX2                !
 ! D24   D(9,4,5,8)             -0.0009         estimate D2E/DX2                !
 ! D25   D(3,4,9,10)             0.0014         estimate D2E/DX2                !
 ! D26   D(3,4,9,16)          -179.9976         estimate D2E/DX2                !
 ! D27   D(5,4,9,10)          -179.9984         estimate D2E/DX2                !
 ! D28   D(5,4,9,16)             0.0027         estimate D2E/DX2                !
 ! D29   D(4,5,6,1)              0.001          estimate D2E/DX2                !
 ! D30   D(4,5,6,7)            179.9998         estimate D2E/DX2                !
 ! D31   D(8,5,6,1)           -179.9986         estimate D2E/DX2                !
 ! D32   D(8,5,6,7)              0.0002         estimate D2E/DX2                !
 ! D33   D(4,9,10,11)           -0.0009         estimate D2E/DX2                !
 ! D34   D(4,9,10,15)         -179.9994         estimate D2E/DX2                !
 ! D35   D(16,9,10,11)         179.9979         estimate D2E/DX2                !
 ! D36   D(16,9,10,15)          -0.0005         estimate D2E/DX2                !
 ! D37   D(4,9,16,17)          179.998          estimate D2E/DX2                !
 ! D38   D(10,9,16,17)          -0.0009         estimate D2E/DX2                !
 ! D39   D(9,10,11,12)           0.0001         estimate D2E/DX2                !
 ! D40   D(9,10,11,14)         179.999          estimate D2E/DX2                !
 ! D41   D(15,10,11,12)        179.9986         estimate D2E/DX2                !
 ! D42   D(15,10,11,14)         -0.0026         estimate D2E/DX2                !
 ! D43   D(10,11,12,3)           0.0003         estimate D2E/DX2                !
 ! D44   D(10,11,12,13)        179.9984         estimate D2E/DX2                !
 ! D45   D(14,11,12,3)        -179.9986         estimate D2E/DX2                !
 ! D46   D(14,11,12,13)         -0.0004         estimate D2E/DX2                !
 --------------------------------------------------------------------------------
 Trust Radius=3.00D-01 FncErr=1.00D-07 GrdErr=1.00D-06 EigMax=2.50D+02 EigMin=1.00D-04
 Number of steps in this run=    107 maximum allowed number of steps=    114.
 GradGradGradGradGradGradGradGradGradGradGradGradGradGradGradGradGradGrad

                          Input orientation:                          
 ---------------------------------------------------------------------
 Center     Atomic      Atomic             Coordinates (Angstroms)
 Number     Number       Type             X           Y           Z
 ---------------------------------------------------------------------
      1          6           0       -2.733807   -0.256485    0.000006
      2          6           0       -1.793081   -1.248226    0.000025
      3          6           0       -0.416371   -0.941808    0.000015
      4          6           0       -0.028496    0.422255   -0.000002
      5          6           0       -1.018224    1.424559   -0.000019
      6          6           0       -2.344014    1.091060   -0.000025
      7          1           0       -3.100053    1.862527   -0.000035
      8          1           0       -0.701868    2.456176   -0.000020
      9          6           0        1.357185    0.737535   -0.000006
     10          6           0        2.294125   -0.265331   -0.000022
     11          6           0        1.898498   -1.609841   -0.000014
     12          6           0        0.574963   -1.945781    0.000006
     13          1           0        0.268786   -2.981466   -0.000014
     14          1           0        2.659057   -2.376685   -0.000044
     15          1           0        3.348207   -0.018234   -0.000014
     16          8           0        1.704824    2.054013    0.000029
     17          1           0        2.666389    2.133069    0.000054
     18          1           0       -2.090281   -2.287457    0.000016
     19          1           0       -3.785606   -0.504069    0.000002
 ---------------------------------------------------------------------
                    Distance matrix (angstroms):
                    1          2          3          4          5
     1  C    0.000000
     2  C    1.366936   0.000000
     3  C    2.416646   1.410399   0.000000
     4  C    2.789157   2.429870   1.418138   0.000000
     5  C    2.401902   2.782837   2.441705   1.408608   0.000000
     6  C    1.402788   2.403286   2.801493   2.410172   1.367092
     7  H    2.150429   3.374160   3.881552   3.392469   2.127399
     8  H    3.389293   3.861779   3.409957   2.142491   1.079034
     9  C    4.210023   3.723900   2.442478   1.421096   2.472766
    10  C    5.027940   4.203729   2.793637   2.422260   3.718520
    11  C    4.825953   3.709248   2.409333   2.800485   4.208902
    12  C    3.715061   2.468646   1.410923   2.443717   3.727927
    13  H    4.054761   2.693588   2.151660   3.416678   4.590147
    14  H    5.794673   4.592925   3.393689   3.880336   5.288843
    15  H    6.086678   5.286371   3.876214   3.405312   4.598627
    16  O    5.003982   4.810418   3.670751   2.380553   2.794853
    17  H    5.905259   5.596430   4.354110   3.192067   3.752114
    18  H    2.130486   1.080892   2.147730   3.404922   3.863724
    19  H    1.080545   2.126952   3.397552   3.869619   3.373130
                    6          7          8          9         10
     6  C    0.000000
     7  H    1.080165   0.000000
     8  H    2.135460   2.470570   0.000000
     9  C    3.718045   4.597019   2.682056   0.000000
    10  C    4.832405   5.798702   4.047540   1.372442   0.000000
    11  C    5.029292   6.086284   4.826427   2.408982   1.401509
    12  C    4.212224   5.292348   4.583396   2.795006   2.404045
    13  H    4.838614   5.900283   5.523596   3.874994   3.388124
    14  H    6.087363   7.151103   5.886626   3.375388   2.142660
    15  H    5.799303   6.716943   4.746136   2.129637   1.082657
    16  O    4.161775   4.808691   2.440061   1.361604   2.393039
    17  H    5.117609   5.772786   3.383719   1.913512   2.427118
    18  H    3.388031   4.271066   4.942645   4.586458   4.828251
    19  H    2.150028   2.463890   4.274633   5.290546   6.084416
                   11         12         13         14         15
    11  C    0.000000
    12  C    1.365504   0.000000
    13  H    2.130097   1.079994   0.000000
    14  H    1.080047   2.128175   2.465594   0.000000
    15  H    2.152875   3.377324   4.273590   2.457075   0.000000
    16  O    3.668970   4.156313   5.236244   4.532290   2.644790
    17  H    3.820868   4.583785   5.648625   4.509760   2.256763
    18  H    4.045926   2.687055   2.459033   4.750176   5.892921
    19  H    5.790662   4.592721   4.751377   6.711212   7.150337
                   16         17         18         19
    16  O    0.000000
    17  H    0.964810   0.000000
    18  H    5.766383   6.493609   0.000000
    19  H    6.057111   6.970131   2.460609   0.000000
 Symmetry turned off by external request.
 Stoichiometry    C10H8O
 Framework group  C1[X(C10H8O)]
 Deg. of freedom    51
 Full point group                 C1      NOp   1
 Rotational constants (GHZ):           1.9692407           1.1423909           0.7229785
 Standard basis: 6-311++G(3df,3pd) (5D, 7F)
   573 basis functions,   806 primitive gaussians,   647 cartesian basis functions
    38 alpha electrons       38 beta electrons
       nuclear repulsion energy       554.5934197352 Hartrees.
 NAtoms=   19 NActive=   19 NUniq=   19 SFac= 1.00D+00 NAtFMM=   60 NAOKFM=F Big=F
 Integral buffers will be    131072 words long.
 Raffenetti 2 integral format.
 Two-electron integral symmetry is turned off.
 One-electron integrals computed using PRISM.
 NBasis=   573 RedAO= T EigKep=  1.03D-06  NBF=   573
 NBsUse=   568 1.00D-06 EigRej=  7.37D-07 NBFU=   568
 ExpMin= 3.60D-02 ExpMax= 8.59D+03 ExpMxC= 1.30D+03 IAcc=3 IRadAn=         5 AccDes= 0.00D+00
 Harris functional with IExCor=  402 and IRadAn=       5 diagonalized for initial guess.
 HarFok:  IExCor=  402 AccDes= 0.00D+00 IRadAn=         5 IDoV= 1 UseB2=F ITyADJ=14
 ICtDFT=  3500011 ScaDFX=  1.000000  1.000000  1.000000  1.000000
 FoFCou: FMM=F IPFlag=           0 FMFlag=      100000 FMFlg1=           0
         NFxFlg=           0 DoJE=T BraDBF=F KetDBF=T FulRan=T
         wScrn=  0.000000 ICntrl=       500 IOpCl=  0 I1Cent=   200000004 NGrid=           0
         NMat0=    1 NMatS0=      1 NMatT0=    0 NMatD0=    1 NMtDS0=    0 NMtDT0=    0
 Symmetry not used in FoFCou.
 Requested convergence on RMS density matrix=1.00D-08 within 128 cycles.
 Requested convergence on MAX density matrix=1.00D-06.
 Requested convergence on             energy=1.00D-06.
 No special actions if energy rises.
 SCF Done:  E(RB3LYP) =  -461.271490131     A.U. after   14 cycles
            NFock= 14  Conv=0.39D-08     -V/T= 2.0043

 **********************************************************************

            Population analysis using the SCF density.

 **********************************************************************

 Alpha  occ. eigenvalues --  -19.16529 -10.24132 -10.18472 -10.18319 -10.17792
 Alpha  occ. eigenvalues --  -10.17515 -10.17471 -10.17448 -10.17381 -10.17296
 Alpha  occ. eigenvalues --  -10.16883  -1.07565  -0.88147  -0.82931  -0.77619
 Alpha  occ. eigenvalues --   -0.75131  -0.72248  -0.64193  -0.62688  -0.60782
 Alpha  occ. eigenvalues --   -0.55117  -0.52492  -0.50958  -0.48603  -0.45785
 Alpha  occ. eigenvalues --   -0.43528  -0.43148  -0.42950  -0.41241  -0.39647
 Alpha  occ. eigenvalues --   -0.37909  -0.37695  -0.34645  -0.33955  -0.33045
 Alpha  occ. eigenvalues --   -0.27671  -0.25515  -0.21324
 Alpha virt. eigenvalues --   -0.04571  -0.02268  -0.01544  -0.00069   0.00382
 Alpha virt. eigenvalues --    0.01804   0.01890   0.02358   0.04177   0.04680
 Alpha virt. eigenvalues --    0.05237   0.05277   0.07125   0.07476   0.07528
 Alpha virt. eigenvalues --    0.08289   0.08358   0.08817   0.09616   0.10415
 Alpha virt. eigenvalues --    0.10559   0.11257   0.11664   0.11903   0.12033
 Alpha virt. eigenvalues --    0.12246   0.13043   0.14026   0.14217   0.14786
 Alpha virt. eigenvalues --    0.14858   0.15335   0.15774   0.15916   0.16110
 Alpha virt. eigenvalues --    0.17159   0.19358   0.19664   0.19970   0.20404
 Alpha virt. eigenvalues --    0.21077   0.21164   0.21816   0.22312   0.22877
 Alpha virt. eigenvalues --    0.23174   0.24328   0.24599   0.25268   0.25997
 Alpha virt. eigenvalues --    0.26479   0.26561   0.26907   0.27228   0.28281
 Alpha virt. eigenvalues --    0.28820   0.29293   0.29778   0.29820   0.30697
 Alpha virt. eigenvalues --    0.30945   0.31500   0.32268   0.32847   0.33334
 Alpha virt. eigenvalues --    0.33829   0.35783   0.36433   0.36989   0.37227
 Alpha virt. eigenvalues --    0.37396   0.38806   0.39711   0.40228   0.40374
 Alpha virt. eigenvalues --    0.41562   0.42448   0.42918   0.44189   0.45340
 Alpha virt. eigenvalues --    0.45629   0.46006   0.46302   0.46880   0.47028
 Alpha virt. eigenvalues --    0.47598   0.48783   0.49444   0.49819   0.51530
 Alpha virt. eigenvalues --    0.52956   0.53108   0.53960   0.54121   0.54578
 Alpha virt. eigenvalues --    0.55163   0.55470   0.55609   0.56044   0.57454
 Alpha virt. eigenvalues --    0.57522   0.58298   0.58958   0.60479   0.60998
 Alpha virt. eigenvalues --    0.61157   0.61886   0.62761   0.63822   0.64122
 Alpha virt. eigenvalues --    0.65141   0.65796   0.66020   0.66811   0.67350
 Alpha virt. eigenvalues --    0.68000   0.68218   0.68802   0.70148   0.71030
 Alpha virt. eigenvalues --    0.71292   0.72133   0.73233   0.74232   0.75139
 Alpha virt. eigenvalues --    0.75363   0.76241   0.76453   0.77643   0.78006
 Alpha virt. eigenvalues --    0.79232   0.79561   0.82075   0.83684   0.83718
 Alpha virt. eigenvalues --    0.84157   0.84754   0.85918   0.86068   0.87439
 Alpha virt. eigenvalues --    0.87446   0.88718   0.89136   0.89557   0.90013
 Alpha virt. eigenvalues --    0.90789   0.93300   0.94915   0.95233   0.95295
 Alpha virt. eigenvalues --    0.96396   0.98070   0.98655   0.98953   1.00694
 Alpha virt. eigenvalues --    1.00719   1.01971   1.03295   1.04504   1.05640
 Alpha virt. eigenvalues --    1.06208   1.06988   1.10118   1.13060   1.13455
 Alpha virt. eigenvalues --    1.16061   1.16841   1.17981   1.18449   1.20226
 Alpha virt. eigenvalues --    1.23053   1.23827   1.24343   1.24449   1.26834
 Alpha virt. eigenvalues --    1.27867   1.28870   1.30590   1.30626   1.31929
 Alpha virt. eigenvalues --    1.33866   1.34969   1.35425   1.36662   1.36667
 Alpha virt. eigenvalues --    1.36849   1.37710   1.38203   1.40236   1.43007
 Alpha virt. eigenvalues --    1.43948   1.44552   1.45257   1.45893   1.47655
 Alpha virt. eigenvalues --    1.48161   1.50093   1.51228   1.51618   1.52913
 Alpha virt. eigenvalues --    1.54100   1.55147   1.55218   1.55665   1.58434
 Alpha virt. eigenvalues --    1.58521   1.61396   1.63891   1.63981   1.64564
 Alpha virt. eigenvalues --    1.64872   1.68054   1.69035   1.69880   1.70824
 Alpha virt. eigenvalues --    1.71511   1.73992   1.76390   1.77584   1.80610
 Alpha virt. eigenvalues --    1.81476   1.83645   1.86202   1.87574   1.88840
 Alpha virt. eigenvalues --    1.90547   1.94188   1.94960   1.96480   1.96780
 Alpha virt. eigenvalues --    1.98927   1.99837   2.00360   2.00934   2.03069
 Alpha virt. eigenvalues --    2.03426   2.05135   2.05375   2.06617   2.08245
 Alpha virt. eigenvalues --    2.10941   2.11887   2.12473   2.12716   2.16528
 Alpha virt. eigenvalues --    2.20342   2.21965   2.23681   2.24290   2.29336
 Alpha virt. eigenvalues --    2.29971   2.30376   2.31482   2.33996   2.35705
 Alpha virt. eigenvalues --    2.37281   2.41211   2.41421   2.42630   2.46195
 Alpha virt. eigenvalues --    2.48440   2.53953   2.57564   2.58278   2.60821
 Alpha virt. eigenvalues --    2.61641   2.62192   2.63179   2.65114   2.67022
 Alpha virt. eigenvalues --    2.67663   2.70642   2.71754   2.75358   2.75534
 Alpha virt. eigenvalues --    2.76554   2.78998   2.79154   2.79550   2.80623
 Alpha virt. eigenvalues --    2.81205   2.81361   2.83362   2.83795   2.84930
 Alpha virt. eigenvalues --    2.86116   2.86514   2.87642   2.89324   2.90972
 Alpha virt. eigenvalues --    2.91249   2.93013   2.93811   2.96014   2.96062
 Alpha virt. eigenvalues --    2.97659   2.99469   3.00758   3.01592   3.01936
 Alpha virt. eigenvalues --    3.03091   3.04171   3.05530   3.06404   3.06551
 Alpha virt. eigenvalues --    3.08111   3.09190   3.09414   3.10031   3.13079
 Alpha virt. eigenvalues --    3.13774   3.14651   3.16745   3.17407   3.18116
 Alpha virt. eigenvalues --    3.18835   3.19490   3.22393   3.22943   3.25467
 Alpha virt. eigenvalues --    3.26519   3.29635   3.31356   3.33003   3.34136
 Alpha virt. eigenvalues --    3.34476   3.37084   3.37986   3.38948   3.39434
 Alpha virt. eigenvalues --    3.40783   3.41591   3.45439   3.46709   3.51291
 Alpha virt. eigenvalues --    3.52422   3.53071   3.54476   3.57211   3.58562
 Alpha virt. eigenvalues --    3.59522   3.62510   3.64682   3.66412   3.68037
 Alpha virt. eigenvalues --    3.68778   3.69630   3.71590   3.75193   3.75961
 Alpha virt. eigenvalues --    3.78168   3.79663   3.82494   3.83644   3.84519
 Alpha virt. eigenvalues --    3.85498   3.86085   3.86785   3.87511   3.88544
 Alpha virt. eigenvalues --    3.88579   3.91778   3.97214   3.98040   3.98698
 Alpha virt. eigenvalues --    3.99740   4.04131   4.05394   4.07591   4.08048
 Alpha virt. eigenvalues --    4.11311   4.17512   4.18545   4.20283   4.23537
 Alpha virt. eigenvalues --    4.26684   4.29999   4.32442   4.33620   4.35217
 Alpha virt. eigenvalues --    4.39136   4.39298   4.41958   4.42200   4.44738
 Alpha virt. eigenvalues --    4.45817   4.45836   4.46694   4.49446   4.53143
 Alpha virt. eigenvalues --    4.54180   4.56498   4.57057   4.60986   4.61281
 Alpha virt. eigenvalues --    4.61659   4.64740   4.66839   4.70470   4.72787
 Alpha virt. eigenvalues --    4.75042   4.77659   4.77992   4.81638   4.84850
 Alpha virt. eigenvalues --    4.85733   4.86827   4.91112   4.96644   4.98196
 Alpha virt. eigenvalues --    5.04940   5.10651   5.13543   5.16020   5.22212
 Alpha virt. eigenvalues --    5.23557   5.26510   5.28848   5.49149   5.51136
 Alpha virt. eigenvalues --    5.54078   5.63301   5.71978   5.72332   5.76718
 Alpha virt. eigenvalues --    5.79355   5.82609   5.85767   5.92801   5.94266
 Alpha virt. eigenvalues --    5.98410   6.08088   6.25585   6.34656   6.42413
 Alpha virt. eigenvalues --    6.50223   6.57101   6.63630   6.84163   7.03220
 Alpha virt. eigenvalues --    7.12793   7.15033   7.20445   7.22304   7.24307
 Alpha virt. eigenvalues --    7.25530   7.26911   7.27597   7.31055   7.31770
 Alpha virt. eigenvalues --    7.35755   7.38087   7.39129   7.40452   7.43520
 Alpha virt. eigenvalues --    7.50858   7.51552   7.51703   7.52980   7.53541
 Alpha virt. eigenvalues --    7.54131   7.56809   7.57792   7.60219   7.60222
 Alpha virt. eigenvalues --    7.65703   7.68634   7.73964   7.85906   7.86986
 Alpha virt. eigenvalues --    7.87476   7.94214   7.95807   7.99876   8.01407
 Alpha virt. eigenvalues --    8.03148   8.11369   8.13256   8.17674   8.19311
 Alpha virt. eigenvalues --    8.23585   8.24194   8.32188   8.38707   8.39545
 Alpha virt. eigenvalues --    8.39773   8.41889   8.41896   8.42243   8.42277
 Alpha virt. eigenvalues --    8.43808   8.43958   8.45516   8.47935   8.48935
 Alpha virt. eigenvalues --    8.52611   8.58538   8.61722   8.67337   8.70815
 Alpha virt. eigenvalues --    8.71838   8.77049   8.77803   8.78585   9.37405
 Alpha virt. eigenvalues --    9.45779   9.47604   9.53576   9.64955   9.68749
 Alpha virt. eigenvalues --    9.70149   9.72237   9.81517   9.85405  14.45736
 Alpha virt. eigenvalues --   14.63311  14.63704  15.01702  15.41103  24.81126
 Alpha virt. eigenvalues --   25.18438  25.42220  25.54558  25.62856  25.72726
 Alpha virt. eigenvalues --   25.88081  25.95520  26.07960  26.17571  50.58076
          Condensed to atoms (all electrons):
               1          2          3          4          5          6
     1  C    7.349179  -1.230595  -0.028091   0.825568  -1.158323   0.036957
     2  C   -1.230595  10.389856  -2.662620  -2.911247   3.065322  -0.834178
     3  C   -0.028091  -2.662620  12.900053   1.232561  -2.383994   0.757565
     4  C    0.825568  -2.911247   1.232561  15.537607  -2.124889   0.041720
     5  C   -1.158323   3.065322  -2.383994  -2.124889  11.354191  -1.103909
     6  C    0.036957  -0.834178   0.757565   0.041720  -1.103909   7.344099
     7  H   -0.120374  -0.003676  -0.000493   0.019140  -0.206020   0.547584
     8  H   -0.005026   0.049601  -0.083345  -0.180934   0.629471  -0.201883
     9  C    0.357970  -0.385250  -2.281279  -2.167740  -1.530148  -0.065115
    10  C    0.211675   0.154876   1.320266  -2.831019  -0.864618  -0.402410
    11  C   -0.254655   0.132270  -0.122662   0.828625   0.341017   0.005485
    12  C   -0.151776  -0.299351  -2.572180  -2.077555  -0.141408   0.323546
    13  H    0.021017  -0.039715  -0.129054  -0.038982  -0.027441   0.014267
    14  H    0.001050  -0.004303   0.043283  -0.010666  -0.004596   0.000385
    15  H    0.000548  -0.002328   0.040291   0.056072  -0.007466  -0.004402
    16  O    0.016647  -0.010940   0.052056  -0.254024  -0.214736  -0.056944
    17  H   -0.001514  -0.002859  -0.032593   0.126769   0.041798   0.008732
    18  H   -0.173742   0.534412  -0.169642  -0.052421   0.027102   0.006184
    19  H    0.563150  -0.213279   0.025269   0.013696  -0.007604  -0.136479
               7          8          9         10         11         12
     1  C   -0.120374  -0.005026   0.357970   0.211675  -0.254655  -0.151776
     2  C   -0.003676   0.049601  -0.385250   0.154876   0.132270  -0.299351
     3  C   -0.000493  -0.083345  -2.281279   1.320266  -0.122662  -2.572180
     4  C    0.019140  -0.180934  -2.167740  -2.831019   0.828625  -2.077555
     5  C   -0.206020   0.629471  -1.530148  -0.864618   0.341017  -0.141408
     6  C    0.547584  -0.201883  -0.065115  -0.402410   0.005485   0.323546
     7  H    0.757271  -0.015768  -0.001215   0.004698   0.001223  -0.010741
     8  H   -0.015768   0.762836   0.019348  -0.018660   0.007907   0.003685
     9  C   -0.001215   0.019348  12.087426  -1.802935  -1.062600   2.411595
    10  C    0.004698  -0.018660  -1.802935  11.340978  -0.442666  -0.963035
    11  C    0.001223   0.007907  -1.062600  -0.442666   7.661302  -1.131990
    12  C   -0.010741   0.003685   2.411595  -0.963035  -1.131990  10.195302
    13  H   -0.000169  -0.000264   0.035436  -0.033499  -0.224443   0.635261
    14  H    0.000056  -0.000085  -0.023678  -0.104518   0.520713  -0.192593
    15  H    0.000092   0.000825  -0.204350   0.587197  -0.184446  -0.074602
    16  O    0.000837  -0.014391   0.370312  -0.006428   0.005649  -0.005987
    17  H   -0.000001   0.002183   0.120558  -0.294393  -0.016808   0.010620
    18  H   -0.000403   0.000082   0.003664   0.003168   0.000118   0.041951
    19  H   -0.004705  -0.000652   0.002460   0.004234  -0.001454  -0.020082
              13         14         15         16         17         18
     1  C    0.021017   0.001050   0.000548   0.016647  -0.001514  -0.173742
     2  C   -0.039715  -0.004303  -0.002328  -0.010940  -0.002859   0.534412
     3  C   -0.129054   0.043283   0.040291   0.052056  -0.032593  -0.169642
     4  C   -0.038982  -0.010666   0.056072  -0.254024   0.126769  -0.052421
     5  C   -0.027441  -0.004596  -0.007466  -0.214736   0.041798   0.027102
     6  C    0.014267   0.000385  -0.004402  -0.056944   0.008732   0.006184
     7  H   -0.000169   0.000056   0.000092   0.000837  -0.000001  -0.000403
     8  H   -0.000264  -0.000085   0.000825  -0.014391   0.002183   0.000082
     9  C    0.035436  -0.023678  -0.204350   0.370312   0.120558   0.003664
    10  C   -0.033499  -0.104518   0.587197  -0.006428  -0.294393   0.003168
    11  C   -0.224443   0.520713  -0.184446   0.005649  -0.016808   0.000118
    12  C    0.635261  -0.192593  -0.074602  -0.005987   0.010620   0.041951
    13  H    0.803531  -0.014591  -0.001955   0.000135  -0.000028  -0.003533
    14  H   -0.014591   0.760219  -0.004861  -0.000137   0.000504  -0.000234
    15  H   -0.001955  -0.004861   0.821528  -0.019386   0.017432   0.000114
    16  O    0.000135  -0.000137  -0.019386   9.006394   0.110617   0.000071
    17  H   -0.000028   0.000504   0.017432   0.110617   0.398922   0.000030
    18  H   -0.003533  -0.000234   0.000114   0.000071   0.000030   0.775839
    19  H    0.000152   0.000111   0.000048   0.000215  -0.000002  -0.015327
              19
     1  C    0.563150
     2  C   -0.213279
     3  C    0.025269
     4  C    0.013696
     5  C   -0.007604
     6  C   -0.136479
     7  H   -0.004705
     8  H   -0.000652
     9  C    0.002460
    10  C    0.004234
    11  C   -0.001454
    12  C   -0.020082
    13  H    0.000152
    14  H    0.000111
    15  H    0.000048
    16  O    0.000215
    17  H   -0.000002
    18  H   -0.015327
    19  H    0.759186
 Mulliken charges:
               1
     1  C   -0.259665
     2  C    0.274001
     3  C    0.094609
     4  C   -0.032280
     5  C    0.316252
     6  C   -0.281204
     7  H    0.032664
     8  H    0.045071
     9  C    0.115541
    10  C    0.137092
    11  C   -0.062586
    12  C    0.019339
    13  H    0.003875
    14  H    0.033942
    15  H   -0.020352
    16  O   -0.979962
    17  H    0.510033
    18  H    0.022567
    19  H    0.031062
 Sum of Mulliken charges =  -0.00000
 Mulliken charges with hydrogens summed into heavy atoms:
               1
     1  C   -0.228603
     2  C    0.296569
     3  C    0.094609
     4  C   -0.032280
     5  C    0.361323
     6  C   -0.248539
     9  C    0.115541
    10  C    0.116740
    11  C   -0.028644
    12  C    0.023214
    16  O   -0.469928
 Electronic spatial extent (au):  <R**2>=           1539.1965
 Charge=             -0.0000 electrons
 Dipole moment (field-independent basis, Debye):
    X=              1.1964    Y=             -0.1411    Z=             -0.0000  Tot=              1.2047
 Quadrupole moment (field-independent basis, Debye-Ang):
   XX=            -51.4610   YY=            -60.1913   ZZ=            -69.2528
   XY=              2.4139   XZ=              0.0002   YZ=              0.0002
 Traceless Quadrupole moment (field-independent basis, Debye-Ang):
   XX=              8.8407   YY=              0.1104   ZZ=             -8.9511
   XY=              2.4139   XZ=              0.0002   YZ=              0.0002
 Octapole moment (field-independent basis, Debye-Ang**2):
  XXX=             28.1875  YYY=              3.3542  ZZZ=              0.0003  XYY=              5.5533
  XXY=             16.5558  XXZ=              0.0003  XZZ=              4.3482  YZZ=              5.8233
  YYZ=             -0.0002  XYZ=              0.0006
 Hexadecapole moment (field-independent basis, Debye-Ang**3):
 XXXX=          -1106.3537 YYYY=           -721.6643 ZZZZ=            -80.4170 XXXY=             61.0512
 XXXZ=              0.0022 YYYX=             23.8605 YYYZ=              0.0016 ZZZX=              0.0005
 ZZZY=              0.0005 XXYY=           -286.6706 XXZZ=           -251.7247 YYZZ=           -153.3945
 XXYZ=              0.0018 YYXZ=              0.0007 ZZXY=             10.2959
 N-N= 5.545934197352D+02 E-N=-2.182528341904D+03  KE= 4.593155829543D+02
 Calling FoFJK, ICntrl=      2127 FMM=F ISym2X=0 I1Cent= 0 IOpClX= 0 NMat=1 NMatS=1 NMatT=0.
 -------------------------------------------------------------------
 Center     Atomic                   Forces (Hartrees/Bohr)
 Number     Number              X              Y              Z
 -------------------------------------------------------------------
      1        6          -0.004213286   -0.002707690   -0.000001097
      2        6          -0.001558087   -0.002564331   -0.000001945
      3        6           0.001164474   -0.002531640   -0.000000575
      4        6           0.002818225    0.006178833   -0.000000130
      5        6           0.001421500    0.004299395    0.000000717
      6        6          -0.002123059    0.004179159    0.000002049
      7        1          -0.000327966    0.001185070   -0.000000392
      8        1          -0.000963173    0.001057854   -0.000000665
      9        6           0.002541679   -0.004241598    0.000002118
     10        6           0.003159893    0.004079339    0.000001786
     11        6           0.000866957   -0.003366196   -0.000001749
     12        6          -0.000443608   -0.004720618   -0.000001373
     13        1          -0.000087995   -0.001357518    0.000001135
     14        1           0.000371279   -0.001183938    0.000000733
     15        1           0.000794264    0.000621468   -0.000000634
     16        8           0.001311406    0.003042265   -0.000001003
     17        1          -0.003341558   -0.000206156   -0.000000405
     18        1          -0.000549418   -0.000973171    0.000001227
     19        1          -0.000841527   -0.000790527    0.000000204
 -------------------------------------------------------------------
 Cartesian Forces:  Max     0.006178833 RMS     0.002089335

 GradGradGradGradGradGradGradGradGradGradGradGradGradGradGradGradGradGrad
 Berny optimization.
 FormGI is forming the generalized inverse of G from B-inverse, IUseBI=4.
 Internal  Forces:  Max     0.007437675 RMS     0.001934848
 Search for a local minimum.
 Step number   1 out of a maximum of  107
 All quantities printed in internal units (Hartrees-Bohrs-Radians)
 Mixed Optimization -- RFO/linear search
 Second derivative matrix not updated -- first step.
 ITU=  0
     Eigenvalues ---    0.01881   0.01904   0.01931   0.02102   0.02128
     Eigenvalues ---    0.02162   0.02168   0.02200   0.02212   0.02251
     Eigenvalues ---    0.02272   0.02284   0.02294   0.02324   0.02385
     Eigenvalues ---    0.02400   0.16000   0.16000   0.16000   0.16000
     Eigenvalues ---    0.16000   0.16000   0.16000   0.16000   0.22000
     Eigenvalues ---    0.22079   0.22557   0.23514   0.24495   0.24927
     Eigenvalues ---    0.25000   0.35675   0.35887   0.35929   0.35974
     Eigenvalues ---    0.35989   0.35995   0.36111   0.37939   0.40514
     Eigenvalues ---    0.41508   0.42565   0.43541   0.44536   0.44732
     Eigenvalues ---    0.49064   0.49674   0.50823   0.50953   0.52625
     Eigenvalues ---    0.54452
 RFO step:  Lambda=-8.89320725D-04 EMin= 1.88063973D-02
 Linear search not attempted -- first point.
 Iteration  1 RMS(Cart)=  0.00953309 RMS(Int)=  0.00002806
 Iteration  2 RMS(Cart)=  0.00004649 RMS(Int)=  0.00000094
 Iteration  3 RMS(Cart)=  0.00000000 RMS(Int)=  0.00000094
 Variable       Old X    -DE/DX   Delta X   Delta X   Delta X     New X
                                 (Linear)    (Quad)   (Total)
    R1        2.58314   0.00427   0.00000   0.00821   0.00821   2.59134
    R2        2.65089   0.00672   0.00000   0.01483   0.01483   2.66571
    R3        2.04193   0.00100   0.00000   0.00278   0.00278   2.04471
    R4        2.66527   0.00522   0.00000   0.01182   0.01182   2.67708
    R5        2.04259   0.00109   0.00000   0.00302   0.00302   2.04561
    R6        2.67989   0.00744   0.00000   0.01735   0.01735   2.69725
    R7        2.66626   0.00518   0.00000   0.01206   0.01206   2.67832
    R8        2.66188   0.00582   0.00000   0.01320   0.01320   2.67508
    R9        2.68548   0.00143   0.00000   0.00306   0.00306   2.68854
   R10        2.58343   0.00453   0.00000   0.00880   0.00880   2.59223
   R11        2.03908   0.00073   0.00000   0.00202   0.00202   2.04109
   R12        2.04122   0.00108   0.00000   0.00298   0.00298   2.04420
   R13        2.59354   0.00231   0.00000   0.00433   0.00434   2.59788
   R14        2.57306   0.00222   0.00000   0.00422   0.00422   2.57727
   R15        2.64847   0.00672   0.00000   0.01482   0.01482   2.66328
   R16        2.04592   0.00091   0.00000   0.00256   0.00256   2.04848
   R17        2.58043   0.00388   0.00000   0.00772   0.00771   2.58814
   R18        2.04099   0.00110   0.00000   0.00306   0.00306   2.04405
   R19        2.04089   0.00133   0.00000   0.00368   0.00368   2.04457
   R20        1.82323  -0.00335   0.00000  -0.00614  -0.00614   1.81709
    A1        2.10101  -0.00001   0.00000  -0.00025  -0.00025   2.10076
    A2        2.09862  -0.00058   0.00000  -0.00352  -0.00352   2.09510
    A3        2.08355   0.00059   0.00000   0.00378   0.00378   2.08733
    A4        2.11080   0.00061   0.00000   0.00249   0.00249   2.11329
    A5        2.10404  -0.00057   0.00000  -0.00291  -0.00291   2.10114
    A6        2.06834  -0.00004   0.00000   0.00042   0.00042   2.06876
    A7        2.06684  -0.00071   0.00000  -0.00315  -0.00315   2.06369
    A8        2.13086   0.00011   0.00000   0.00022   0.00022   2.13108
    A9        2.08549   0.00060   0.00000   0.00293   0.00293   2.08842
   A10        2.08547   0.00016   0.00000   0.00100   0.00100   2.08647
   A11        2.07156  -0.00132   0.00000  -0.00582  -0.00582   2.06574
   A12        2.12616   0.00116   0.00000   0.00482   0.00482   2.13098
   A13        2.10345  -0.00021   0.00000  -0.00078  -0.00078   2.10267
   A14        2.06495   0.00136   0.00000   0.00819   0.00819   2.07314
   A15        2.11479  -0.00115   0.00000  -0.00741  -0.00741   2.10738
   A16        2.09881   0.00016   0.00000   0.00070   0.00070   2.09950
   A17        2.08472   0.00053   0.00000   0.00344   0.00344   2.08815
   A18        2.09966  -0.00069   0.00000  -0.00413  -0.00413   2.09553
   A19        2.09850   0.00215   0.00000   0.00768   0.00769   2.10619
   A20        2.05269  -0.00459   0.00000  -0.01785  -0.01786   2.03483
   A21        2.13199   0.00244   0.00000   0.01017   0.01017   2.14216
   A22        2.10399  -0.00064   0.00000  -0.00322  -0.00321   2.10078
   A23        2.09196  -0.00011   0.00000  -0.00108  -0.00108   2.09088
   A24        2.08724   0.00075   0.00000   0.00429   0.00429   2.09153
   A25        2.10554   0.00023   0.00000   0.00185   0.00185   2.10739
   A26        2.07413   0.00047   0.00000   0.00270   0.00270   2.07683
   A27        2.10351  -0.00070   0.00000  -0.00455  -0.00455   2.09896
   A28        2.10129  -0.00103   0.00000  -0.00343  -0.00343   2.09786
   A29        2.07509   0.00082   0.00000   0.00361   0.00362   2.07870
   A30        2.10681   0.00021   0.00000  -0.00018  -0.00018   2.10662
   A31        1.91100   0.00012   0.00000   0.00076   0.00076   1.91176
    D1        0.00000  -0.00000   0.00000  -0.00000  -0.00000  -0.00000
    D2       -3.14156  -0.00000   0.00000  -0.00004  -0.00004   3.14159
    D3        3.14158   0.00000   0.00000   0.00001   0.00001  -3.14159
    D4        0.00002  -0.00000   0.00000  -0.00002  -0.00002   0.00000
    D5       -0.00002   0.00000   0.00000   0.00002   0.00002   0.00000
    D6       -3.14159  -0.00000   0.00000  -0.00001  -0.00001   3.14159
    D7        3.14159   0.00000   0.00000  -0.00000  -0.00000   3.14159
    D8        0.00002  -0.00000   0.00000  -0.00002  -0.00002  -0.00000
    D9        0.00001  -0.00000   0.00000  -0.00001  -0.00001   0.00000
   D10       -3.14157  -0.00000   0.00000  -0.00002  -0.00002  -3.14159
   D11        3.14157   0.00000   0.00000   0.00002   0.00002  -3.14159
   D12       -0.00001   0.00000   0.00000   0.00001   0.00001   0.00000
   D13       -0.00001   0.00000   0.00000   0.00001   0.00001  -0.00000
   D14        3.14159   0.00000   0.00000   0.00000   0.00000   3.14159
   D15        3.14157   0.00000   0.00000   0.00002   0.00002   3.14159
   D16       -0.00002   0.00000   0.00000   0.00001   0.00001  -0.00000
   D17        3.14158   0.00000   0.00000   0.00000   0.00000   3.14159
   D18        0.00002  -0.00000   0.00000  -0.00002  -0.00002   0.00000
   D19        0.00000  -0.00000   0.00000  -0.00001  -0.00001  -0.00000
   D20       -3.14156  -0.00000   0.00000  -0.00003  -0.00003  -3.14159
   D21       -0.00000   0.00000   0.00000   0.00001   0.00001   0.00000
   D22        3.14158   0.00000   0.00000   0.00001   0.00001   3.14159
   D23        3.14158   0.00000   0.00000   0.00001   0.00001  -3.14159
   D24       -0.00002   0.00000   0.00000   0.00002   0.00002  -0.00000
   D25        0.00002  -0.00000   0.00000  -0.00001  -0.00001   0.00001
   D26       -3.14155  -0.00000   0.00000  -0.00004  -0.00004   3.14159
   D27       -3.14156  -0.00000   0.00000  -0.00002  -0.00002  -3.14158
   D28        0.00005  -0.00000   0.00000  -0.00005  -0.00005  -0.00000
   D29        0.00002  -0.00000   0.00000  -0.00002  -0.00002  -0.00000
   D30        3.14159   0.00000   0.00000   0.00000   0.00000  -3.14159
   D31       -3.14157  -0.00000   0.00000  -0.00002  -0.00002  -3.14159
   D32        0.00000  -0.00000   0.00000  -0.00000  -0.00000   0.00000
   D33       -0.00002   0.00000   0.00000   0.00001   0.00001  -0.00001
   D34       -3.14158  -0.00000   0.00000  -0.00001  -0.00001   3.14159
   D35        3.14156   0.00000   0.00000   0.00004   0.00004  -3.14159
   D36       -0.00001   0.00000   0.00000   0.00002   0.00002   0.00001
   D37        3.14156   0.00000   0.00000   0.00003   0.00003   3.14159
   D38       -0.00002  -0.00000   0.00000  -0.00000  -0.00000  -0.00002
   D39        0.00000  -0.00000   0.00000  -0.00000  -0.00000  -0.00000
   D40        3.14157   0.00000   0.00000   0.00002   0.00002   3.14159
   D41        3.14157   0.00000   0.00000   0.00002   0.00002   3.14159
   D42       -0.00004   0.00000   0.00000   0.00004   0.00004  -0.00001
   D43        0.00000   0.00000   0.00000   0.00000   0.00000   0.00001
   D44        3.14156   0.00000   0.00000   0.00003   0.00003   3.14159
   D45       -3.14157  -0.00000   0.00000  -0.00002  -0.00002  -3.14159
   D46       -0.00001   0.00000   0.00000   0.00001   0.00001   0.00000
         Item               Value     Threshold  Converged?
 Maximum Force            0.007438     0.000015     NO 
 RMS     Force            0.001935     0.000010     NO 
 Maximum Displacement     0.029266     0.000060     NO 
 RMS     Displacement     0.009529     0.000040     NO 
 Predicted change in Energy=-4.457264D-04
 GradGradGradGradGradGradGradGradGradGradGradGradGradGradGradGradGradGrad

                          Input orientation:                          
 ---------------------------------------------------------------------
 Center     Atomic      Atomic             Coordinates (Angstroms)
 Number     Number       Type             X           Y           Z
 ---------------------------------------------------------------------
      1          6           0       -2.741002   -0.255356   -0.000005
      2          6           0       -1.797618   -1.250563   -0.000001
      3          6           0       -0.413940   -0.946693   -0.000001
      4          6           0       -0.024004    0.426331   -0.000001
      5          6           0       -1.017963    1.434274   -0.000005
      6          6           0       -2.348232    1.099496   -0.000006
      7          1           0       -3.102262    1.875131   -0.000009
      8          1           0       -0.709060    2.469261   -0.000004
      9          6           0        1.364967    0.734352    0.000003
     10          6           0        2.305677   -0.268128   -0.000005
     11          6           0        1.906460   -1.619753   -0.000008
     12          6           0        0.579248   -1.957797   -0.000003
     13          1           0        0.273569   -2.995658   -0.000006
     14          1           0        2.665297   -2.390573   -0.000017
     15          1           0        3.360260   -0.017265   -0.000004
     16          8           0        1.696841    2.057191    0.000002
     17          1           0        2.654054    2.148556    0.000012
     18          1           0       -2.098626   -2.290361   -0.000000
     19          1           0       -3.793434   -0.506636   -0.000005
 ---------------------------------------------------------------------
                    Distance matrix (angstroms):
                    1          2          3          4          5
     1  C    0.000000
     2  C    1.371280   0.000000
     3  C    2.427583   1.416652   0.000000
     4  C    2.801209   2.440836   1.427321   0.000000
     5  C    2.413238   2.795750   2.456389   1.415593   0.000000
     6  C    1.410636   2.413702   2.815737   2.419749   1.371749
     7  H    2.160899   3.387043   3.897405   3.402160   2.130412
     8  H    3.398871   3.875829   3.428678   2.154731   1.080101
     9  C    4.223565   3.733876   2.447534   1.422715   2.483595
    10  C    5.046695   4.219267   2.802993   2.430985   3.734267
    11  C    4.843602   3.722432   2.416044   2.813033   4.228396
    12  C    3.731268   2.479853   1.417305   2.459264   3.749297
    13  H    4.073928   2.708352   2.161233   3.434903   4.614364
    14  H    5.812677   4.606217   3.400954   3.894520   5.309977
    15  H    6.105906   5.303276   3.886956   3.413213   4.612570
    16  O    5.004231   4.811704   3.671338   2.370868   2.785352
    17  H    5.906388   5.601018   4.358114   3.184031   3.740843
    18  H    2.133984   1.082490   2.154904   3.418256   3.878240
    19  H    1.082015   2.129955   3.408024   3.883173   3.386794
                    6          7          8          9         10
     6  C    0.000000
     7  H    1.081744   0.000000
     8  H    2.136151   2.465847   0.000000
     9  C    3.731110   4.610586   2.703978   0.000000
    10  C    4.850698   5.817161   4.072093   1.374737   0.000000
    11  C    5.049429   6.107497   4.853966   2.415580   1.409349
    12  C    4.232869   5.314589   4.610703   2.804464   2.415686
    13  H    4.862523   5.926282   5.552558   3.886402   3.401306
    14  H    6.108687   7.173630   5.916440   3.384673   2.152696
    15  H    5.816704   6.733896   4.768876   2.132164   1.084010
    16  O    4.156898   4.802555   2.440935   1.363835   2.403703
    17  H    5.111105   5.762806   3.378371   1.913562   2.441665
    18  H    3.399034   4.284695   4.958315   4.598409   4.846371
    19  H    2.160618   2.480027   4.285945   5.305577   6.103773
                   11         12         13         14         15
    11  C    0.000000
    12  C    1.369586   0.000000
    13  H    2.135286   1.081940   0.000000
    14  H    1.081663   2.130468   2.467081   0.000000
    15  H    2.163678   3.391120   4.289345   2.472966   0.000000
    16  O    3.682915   4.167631   5.249475   4.551979   2.659010
    17  H    3.841751   4.600756   5.668301   4.539142   2.278049
    18  H    4.060842   2.698446   2.474825   4.764977   5.913240
    19  H    5.807567   4.607192   4.768202   6.727884   7.170414
                   16         17         18         19
    16  O    0.000000
    17  H    0.961563   0.000000
    18  H    5.771203   6.503226   0.000000
    19  H    6.059401   6.972815   2.460498   0.000000
 Symmetry turned off by external request.
 Stoichiometry    C10H8O
 Framework group  C1[X(C10H8O)]
 Deg. of freedom    51
 Full point group                 C1      NOp   1
 Rotational constants (GHZ):           1.9522909           1.1374275           0.7187028
 Standard basis: 6-311++G(3df,3pd) (5D, 7F)
   573 basis functions,   806 primitive gaussians,   647 cartesian basis functions
    38 alpha electrons       38 beta electrons
       nuclear repulsion energy       552.8027718912 Hartrees.
 NAtoms=   19 NActive=   19 NUniq=   19 SFac= 1.00D+00 NAtFMM=   60 NAOKFM=F Big=F
 Integral buffers will be    131072 words long.
 Raffenetti 2 integral format.
 Two-electron integral symmetry is turned off.
 One-electron integrals computed using PRISM.
 NBasis=   573 RedAO= T EigKep=  1.06D-06  NBF=   573
 NBsUse=   568 1.00D-06 EigRej=  7.65D-07 NBFU=   568
 Initial guess from the checkpoint file:  "/home/artemiy/opt/gaussian/scr/Gau-3330.chk"
 B after Tr=     0.001452   -0.000912   -0.000004
         Rot=    1.000000   -0.000000    0.000000    0.000109 Ang=  -0.01 deg.
 ExpMin= 3.60D-02 ExpMax= 8.59D+03 ExpMxC= 1.30D+03 IAcc=3 IRadAn=         5 AccDes= 0.00D+00
 Harris functional with IExCor=  402 and IRadAn=       5 diagonalized for initial guess.
 HarFok:  IExCor=  402 AccDes= 0.00D+00 IRadAn=         5 IDoV= 1 UseB2=F ITyADJ=14
 ICtDFT=  3500011 ScaDFX=  1.000000  1.000000  1.000000  1.000000
 FoFCou: FMM=F IPFlag=           0 FMFlag=      100000 FMFlg1=           0
         NFxFlg=           0 DoJE=T BraDBF=F KetDBF=T FulRan=T
         wScrn=  0.000000 ICntrl=       500 IOpCl=  0 I1Cent=   200000004 NGrid=           0
         NMat0=    1 NMatS0=      1 NMatT0=    0 NMatD0=    1 NMtDS0=    0 NMtDT0=    0
 Symmetry not used in FoFCou.
 Requested convergence on RMS density matrix=1.00D-08 within 128 cycles.
 Requested convergence on MAX density matrix=1.00D-06.
 Requested convergence on             energy=1.00D-06.
 No special actions if energy rises.
 SCF Done:  E(RB3LYP) =  -461.271915715     A.U. after   10 cycles
            NFock= 10  Conv=0.92D-08     -V/T= 2.0046
 Calling FoFJK, ICntrl=      2127 FMM=F ISym2X=0 I1Cent= 0 IOpClX= 0 NMat=1 NMatS=1 NMatT=0.
 -------------------------------------------------------------------
 Center     Atomic                   Forces (Hartrees/Bohr)
 Number     Number              X              Y              Z
 -------------------------------------------------------------------
      1        6           0.000078886   -0.000213378    0.000000288
      2        6           0.000122071    0.000496210   -0.000000155
      3        6          -0.000104551    0.000029472    0.000000129
      4        6          -0.000354371    0.000777191    0.000000147
      5        6           0.000255241   -0.000598332    0.000000396
      6        6           0.000245097   -0.000220486   -0.000000279
      7        1           0.000157823   -0.000004909    0.000000046
      8        1          -0.000277300   -0.000154508   -0.000000074
      9        6          -0.000054222   -0.002583135   -0.000001096
     10        6           0.000231028    0.001163330    0.000000552
     11        6          -0.000658477    0.000069504    0.000000092
     12        6           0.000027464    0.000287893   -0.000000358
     13        1           0.000070253    0.000183219    0.000000046
     14        1          -0.000052216    0.000044863    0.000000179
     15        1          -0.000217788   -0.000070503   -0.000000172
     16        8           0.000431820    0.000598197    0.000000424
     17        1           0.000037314    0.000206426   -0.000000091
     18        1          -0.000087588    0.000052767   -0.000000008
     19        1           0.000149518   -0.000063821   -0.000000067
 -------------------------------------------------------------------
 Cartesian Forces:  Max     0.002583135 RMS     0.000440035

 GradGradGradGradGradGradGradGradGradGradGradGradGradGradGradGradGradGrad
 Berny optimization.
 Using GEDIIS/GDIIS optimizer.
 FormGI is forming the generalized inverse of G from B-inverse, IUseBI=4.
 Internal  Forces:  Max     0.001126528 RMS     0.000243530
 Search for a local minimum.
 Step number   2 out of a maximum of  107
 All quantities printed in internal units (Hartrees-Bohrs-Radians)
 Mixed Optimization -- En-DIIS/RFO-DIIS
 Update second derivatives using D2CorX and points    1    2
 DE= -4.26D-04 DEPred=-4.46D-04 R= 9.55D-01
 TightC=F SS=  1.41D+00  RLast= 4.88D-02 DXNew= 5.0454D-01 1.4651D-01
 Trust test= 9.55D-01 RLast= 4.88D-02 DXMaxT set to 3.00D-01
 ITU=  1  0
 Use linear search instead of GDIIS.
     Eigenvalues ---    0.01881   0.01905   0.01931   0.02103   0.02130
     Eigenvalues ---    0.02162   0.02168   0.02200   0.02212   0.02249
     Eigenvalues ---    0.02272   0.02282   0.02294   0.02324   0.02384
     Eigenvalues ---    0.02399   0.15700   0.16000   0.16000   0.16000
     Eigenvalues ---    0.16000   0.16000   0.16000   0.16037   0.21833
     Eigenvalues ---    0.22023   0.22556   0.23238   0.24519   0.24539
     Eigenvalues ---    0.25323   0.35692   0.35884   0.35937   0.35978
     Eigenvalues ---    0.35987   0.36042   0.36160   0.38038   0.40543
     Eigenvalues ---    0.41536   0.42574   0.43584   0.44454   0.45365
     Eigenvalues ---    0.49313   0.49710   0.50859   0.51950   0.53875
     Eigenvalues ---    0.55135
 RFO step:  Lambda=-1.39079800D-05 EMin= 1.88066956D-02
 Quartic linear search produced a step of -0.03680.
 Iteration  1 RMS(Cart)=  0.00103319 RMS(Int)=  0.00000061
 Iteration  2 RMS(Cart)=  0.00000094 RMS(Int)=  0.00000008
 Variable       Old X    -DE/DX   Delta X   Delta X   Delta X     New X
                                 (Linear)    (Quad)   (Total)
    R1        2.59134  -0.00067  -0.00030  -0.00082  -0.00112   2.59023
    R2        2.66571  -0.00028  -0.00055   0.00018  -0.00037   2.66535
    R3        2.04471  -0.00013  -0.00010  -0.00021  -0.00031   2.04440
    R4        2.67708  -0.00036  -0.00043  -0.00016  -0.00059   2.67649
    R5        2.04561  -0.00003  -0.00011   0.00008  -0.00003   2.04558
    R6        2.69725  -0.00037  -0.00064   0.00009  -0.00055   2.69669
    R7        2.67832  -0.00051  -0.00044  -0.00048  -0.00092   2.67739
    R8        2.67508  -0.00066  -0.00049  -0.00075  -0.00123   2.67385
    R9        2.68854   0.00000  -0.00011   0.00018   0.00007   2.68861
   R10        2.59223  -0.00031  -0.00032  -0.00012  -0.00044   2.59179
   R11        2.04109  -0.00023  -0.00007  -0.00050  -0.00057   2.04052
   R12        2.04420  -0.00011  -0.00011  -0.00015  -0.00026   2.04394
   R13        2.59788  -0.00113  -0.00016  -0.00192  -0.00208   2.59579
   R14        2.57727   0.00089  -0.00016   0.00185   0.00170   2.57897
   R15        2.66328  -0.00008  -0.00055   0.00059   0.00005   2.66333
   R16        2.04848  -0.00023  -0.00009  -0.00048  -0.00058   2.04790
   R17        2.58814  -0.00040  -0.00028  -0.00036  -0.00064   2.58750
   R18        2.04405  -0.00007  -0.00011  -0.00002  -0.00014   2.04391
   R19        2.04457  -0.00020  -0.00014  -0.00033  -0.00047   2.04410
   R20        1.81709   0.00006   0.00023  -0.00022   0.00001   1.81710
    A1        2.10076  -0.00023   0.00001  -0.00101  -0.00100   2.09976
    A2        2.09510   0.00002   0.00013  -0.00027  -0.00014   2.09495
    A3        2.08733   0.00021  -0.00014   0.00128   0.00114   2.08847
    A4        2.11329   0.00005  -0.00009   0.00037   0.00027   2.11356
    A5        2.10114  -0.00013   0.00011  -0.00088  -0.00078   2.10036
    A6        2.06876   0.00008  -0.00002   0.00052   0.00050   2.06926
    A7        2.06369   0.00022   0.00012   0.00067   0.00079   2.06448
    A8        2.13108  -0.00009  -0.00001  -0.00036  -0.00036   2.13071
    A9        2.08842  -0.00013  -0.00011  -0.00032  -0.00042   2.08800
   A10        2.08647  -0.00027  -0.00004  -0.00103  -0.00107   2.08540
   A11        2.06574  -0.00024   0.00021  -0.00117  -0.00096   2.06478
   A12        2.13098   0.00051  -0.00018   0.00220   0.00202   2.13300
   A13        2.10267   0.00010   0.00003   0.00038   0.00041   2.10308
   A14        2.07314   0.00018  -0.00030   0.00156   0.00126   2.07440
   A15        2.10738  -0.00028   0.00027  -0.00195  -0.00168   2.10571
   A16        2.09950   0.00013  -0.00003   0.00061   0.00059   2.10009
   A17        2.08815   0.00005  -0.00013   0.00057   0.00045   2.08860
   A18        2.09553  -0.00018   0.00015  -0.00118  -0.00103   2.09450
   A19        2.10619   0.00055  -0.00028   0.00254   0.00226   2.10844
   A20        2.03483  -0.00012   0.00066  -0.00140  -0.00074   2.03409
   A21        2.14216  -0.00043  -0.00037  -0.00114  -0.00151   2.14065
   A22        2.10078  -0.00046   0.00012  -0.00218  -0.00206   2.09871
   A23        2.09088   0.00025   0.00004   0.00107   0.00111   2.09199
   A24        2.09153   0.00021  -0.00016   0.00111   0.00095   2.09248
   A25        2.10739   0.00018  -0.00007   0.00085   0.00078   2.10817
   A26        2.07683  -0.00008  -0.00010  -0.00019  -0.00029   2.07654
   A27        2.09896  -0.00010   0.00017  -0.00065  -0.00049   2.09848
   A28        2.09786   0.00011   0.00013   0.00029   0.00041   2.09827
   A29        2.07870  -0.00004  -0.00013   0.00004  -0.00009   2.07862
   A30        2.10662  -0.00007   0.00001  -0.00033  -0.00032   2.10630
   A31        1.91176   0.00036  -0.00003   0.00224   0.00221   1.91397
    D1       -0.00000   0.00000   0.00000   0.00000   0.00000  -0.00000
    D2        3.14159   0.00000   0.00000  -0.00000   0.00000   3.14159
    D3       -3.14159  -0.00000  -0.00000   0.00000  -0.00000   3.14159
    D4        0.00000  -0.00000   0.00000  -0.00000  -0.00000   0.00000
    D5        0.00000  -0.00000  -0.00000  -0.00000  -0.00000  -0.00000
    D6        3.14159  -0.00000   0.00000  -0.00000  -0.00000   3.14159
    D7        3.14159   0.00000   0.00000   0.00000   0.00000   3.14159
    D8       -0.00000   0.00000   0.00000   0.00000   0.00000  -0.00000
    D9        0.00000  -0.00000   0.00000  -0.00000  -0.00000   0.00000
   D10       -3.14159  -0.00000   0.00000  -0.00000  -0.00000  -3.14159
   D11       -3.14159  -0.00000  -0.00000   0.00000  -0.00000  -3.14159
   D12        0.00000  -0.00000  -0.00000  -0.00000  -0.00000   0.00000
   D13       -0.00000   0.00000  -0.00000   0.00000   0.00000  -0.00000
   D14        3.14159   0.00000  -0.00000   0.00000   0.00000   3.14159
   D15        3.14159   0.00000  -0.00000   0.00000   0.00000   3.14159
   D16       -0.00000   0.00000  -0.00000   0.00000   0.00000  -0.00000
   D17        3.14159   0.00000  -0.00000   0.00001   0.00001  -3.14159
   D18        0.00000  -0.00000   0.00000  -0.00000  -0.00000  -0.00000
   D19       -0.00000   0.00000   0.00000   0.00000   0.00000   0.00000
   D20       -3.14159  -0.00000   0.00000  -0.00000  -0.00000   3.14159
   D21        0.00000  -0.00000  -0.00000  -0.00000  -0.00000  -0.00000
   D22        3.14159   0.00000  -0.00000   0.00000   0.00000  -3.14159
   D23       -3.14159  -0.00000  -0.00000  -0.00000  -0.00000   3.14159
   D24       -0.00000   0.00000  -0.00000   0.00000   0.00000  -0.00000
   D25        0.00001  -0.00000   0.00000  -0.00001  -0.00001   0.00000
   D26        3.14159   0.00000   0.00000   0.00000   0.00000  -3.14159
   D27       -3.14158  -0.00000   0.00000  -0.00001  -0.00001  -3.14159
   D28       -0.00000   0.00000   0.00000   0.00000   0.00000   0.00000
   D29       -0.00000   0.00000   0.00000   0.00000   0.00000   0.00000
   D30       -3.14159   0.00000  -0.00000   0.00000   0.00000  -3.14159
   D31       -3.14159  -0.00000   0.00000  -0.00000  -0.00000  -3.14159
   D32        0.00000  -0.00000   0.00000  -0.00000  -0.00000   0.00000
   D33       -0.00001   0.00000  -0.00000   0.00001   0.00001  -0.00000
   D34        3.14159   0.00000   0.00000   0.00000   0.00000  -3.14159
   D35       -3.14159  -0.00000  -0.00000  -0.00000  -0.00001   3.14159
   D36        0.00001  -0.00000  -0.00000  -0.00001  -0.00001  -0.00000
   D37        3.14159  -0.00000  -0.00000  -0.00000  -0.00000   3.14158
   D38       -0.00002   0.00000   0.00000   0.00001   0.00001  -0.00001
   D39       -0.00000   0.00000   0.00000   0.00000   0.00000   0.00000
   D40        3.14159   0.00000  -0.00000   0.00000   0.00000   3.14159
   D41        3.14159   0.00000  -0.00000   0.00000   0.00000   3.14159
   D42       -0.00001   0.00000  -0.00000   0.00001   0.00000  -0.00000
   D43        0.00001  -0.00000  -0.00000  -0.00001  -0.00001  -0.00000
   D44        3.14159   0.00000  -0.00000   0.00000   0.00000  -3.14159
   D45       -3.14159  -0.00000   0.00000  -0.00001  -0.00001  -3.14159
   D46        0.00000  -0.00000  -0.00000   0.00000  -0.00000   0.00000
         Item               Value     Threshold  Converged?
 Maximum Force            0.001127     0.000015     NO 
 RMS     Force            0.000244     0.000010     NO 
 Maximum Displacement     0.004104     0.000060     NO 
 RMS     Displacement     0.001033     0.000040     NO 
 Predicted change in Energy=-7.578726D-06
 GradGradGradGradGradGradGradGradGradGradGradGradGradGradGradGradGradGrad

                          Input orientation:                          
 ---------------------------------------------------------------------
 Center     Atomic      Atomic             Coordinates (Angstroms)
 Number     Number       Type             X           Y           Z
 ---------------------------------------------------------------------
      1          6           0       -2.741164   -0.255998   -0.000004
      2          6           0       -1.797523   -1.250146   -0.000004
      3          6           0       -0.414272   -0.945800   -0.000004
      4          6           0       -0.023872    0.426788   -0.000003
      5          6           0       -1.018047    1.433601   -0.000003
      6          6           0       -2.348004    1.098538   -0.000003
      7          1           0       -3.101337    1.874659   -0.000004
      8          1           0       -0.711232    2.468891   -0.000002
      9          6           0        1.365550    0.732935   -0.000003
     10          6           0        2.306409   -0.267891   -0.000004
     11          6           0        1.905615   -1.619075   -0.000006
     12          6           0        0.578602   -1.956527   -0.000006
     13          1           0        0.272931   -2.994132   -0.000007
     14          1           0        2.663731   -2.390502   -0.000008
     15          1           0        3.360747   -0.017322   -0.000003
     16          8           0        1.698452    2.056444    0.000001
     17          1           0        2.655522    2.149337    0.000010
     18          1           0       -2.098640   -2.289898   -0.000004
     19          1           0       -3.793234   -0.508092   -0.000004
 ---------------------------------------------------------------------
                    Distance matrix (angstroms):
                    1          2          3          4          5
     1  C    0.000000
     2  C    1.370689   0.000000
     3  C    2.426984   1.416337   0.000000
     4  C    2.801763   2.440891   1.427029   0.000000
     5  C    2.413271   2.794653   2.454810   1.414941   0.000000
     6  C    1.410441   2.412333   2.814008   2.419264   1.371514
     7  H    2.160885   3.385903   3.895550   3.401048   2.129467
     8  H    3.397888   3.874438   3.427579   2.154680   1.079797
     9  C    4.224108   3.733315   2.446613   1.422750   2.484445
    10  C    5.047587   4.219844   2.803866   2.431622   3.734580
    11  C    4.842575   3.721470   2.415611   2.812201   4.226894
    12  C    3.729965   2.478900   1.416816   2.458285   3.747300
    13  H    4.072118   2.707077   2.160535   3.433772   4.612098
    14  H    5.811109   4.604693   3.400186   3.893627   5.308413
    15  H    6.106578   5.303547   3.887524   3.413631   4.612919
    16  O    5.005755   4.812004   3.671114   2.371113   2.786988
    17  H    5.908456   5.602330   4.359302   3.185330   3.742645
    18  H    2.132975   1.082476   2.154923   3.418340   3.877128
    19  H    1.081851   2.129203   3.407194   3.883567   3.387009
                    6          7          8          9         10
     6  C    0.000000
     7  H    1.081607   0.000000
     8  H    2.134687   2.462867   0.000000
     9  C    3.731507   4.610489   2.706762   0.000000
    10  C    4.850844   5.816721   4.073835   1.373634   0.000000
    11  C    5.047643   6.105387   4.853798   2.413219   1.409373
    12  C    4.230655   5.312244   4.609554   2.802230   2.415949
    13  H    4.859964   5.923750   5.550964   3.883922   3.401092
    14  H    6.106626   7.171304   5.916424   3.382474   2.152476
    15  H    5.816785   6.733360   4.770982   2.131596   1.083704
    16  O    4.158292   4.803231   2.444727   1.364734   2.402529
    17  H    5.112675   5.763409   3.381885   1.915783   2.442309
    18  H    3.397599   4.283566   4.956911   4.597622   4.846954
    19  H    2.161007   2.481174   4.284993   5.305959   6.104370
                   11         12         13         14         15
    11  C    0.000000
    12  C    1.369247   0.000000
    13  H    2.134582   1.081693   0.000000
    14  H    1.081591   2.129812   2.465826   0.000000
    15  H    2.164030   3.391291   4.289058   2.473422   0.000000
    16  O    3.681353   4.166294   5.247898   4.550504   2.657768
    17  H    3.842303   4.601273   5.668511   4.539846   2.278542
    18  H    4.060057   2.697918   2.473923   4.763434   5.913503
    19  H    5.806132   4.605530   4.765930   6.725761   7.170795
                   16         17         18         19
    16  O    0.000000
    17  H    0.961567   0.000000
    18  H    5.771360   6.504526   0.000000
    19  H    6.060979   6.974839   2.458959   0.000000
 Symmetry turned off by external request.
 Stoichiometry    C10H8O
 Framework group  C1[X(C10H8O)]
 Deg. of freedom    51
 Full point group                 C1      NOp   1
 Rotational constants (GHZ):           1.9541257           1.1371844           0.7188542
 Standard basis: 6-311++G(3df,3pd) (5D, 7F)
   573 basis functions,   806 primitive gaussians,   647 cartesian basis functions
    38 alpha electrons       38 beta electrons
       nuclear repulsion energy       552.8858445058 Hartrees.
 NAtoms=   19 NActive=   19 NUniq=   19 SFac= 1.00D+00 NAtFMM=   60 NAOKFM=F Big=F
 Integral buffers will be    131072 words long.
 Raffenetti 2 integral format.
 Two-electron integral symmetry is turned off.
 One-electron integrals computed using PRISM.
 NBasis=   573 RedAO= T EigKep=  1.05D-06  NBF=   573
 NBsUse=   568 1.00D-06 EigRej=  7.62D-07 NBFU=   568
 Initial guess from the checkpoint file:  "/home/artemiy/opt/gaussian/scr/Gau-3330.chk"
 B after Tr=     0.000245   -0.000098   -0.000001
         Rot=    1.000000   -0.000000   -0.000000    0.000035 Ang=  -0.00 deg.
 Requested convergence on RMS density matrix=1.00D-08 within 128 cycles.
 Requested convergence on MAX density matrix=1.00D-06.
 Requested convergence on             energy=1.00D-06.
 No special actions if energy rises.
 SCF Done:  E(RB3LYP) =  -461.271924720     A.U. after    9 cycles
            NFock=  9  Conv=0.50D-08     -V/T= 2.0046
 Calling FoFJK, ICntrl=      2127 FMM=F ISym2X=0 I1Cent= 0 IOpClX= 0 NMat=1 NMatS=1 NMatT=0.
 -------------------------------------------------------------------
 Center     Atomic                   Forces (Hartrees/Bohr)
 Number     Number              X              Y              Z
 -------------------------------------------------------------------
      1        6          -0.000035828    0.000077416    0.000000024
      2        6           0.000135271    0.000040194    0.000000002
      3        6          -0.000079764    0.000001222   -0.000000096
      4        6          -0.000114666    0.000362185   -0.000000096
      5        6           0.000192605   -0.000227432   -0.000000013
      6        6          -0.000025916   -0.000116132   -0.000000012
      7        1           0.000041557    0.000026905    0.000000040
      8        1          -0.000069311    0.000023232   -0.000000002
      9        6           0.000000325   -0.000795313    0.000000230
     10        6           0.000079755    0.000307669    0.000000102
     11        6          -0.000189744   -0.000122685   -0.000000156
     12        6           0.000115652    0.000075042    0.000000133
     13        1           0.000029211    0.000013069   -0.000000020
     14        1          -0.000006403   -0.000016766    0.000000046
     15        1          -0.000083064   -0.000040454   -0.000000055
     16        8          -0.000009331    0.000443782   -0.000000012
     17        1          -0.000014957   -0.000051381   -0.000000085
     18        1           0.000003222    0.000000708   -0.000000016
     19        1           0.000031386   -0.000001260   -0.000000016
 -------------------------------------------------------------------
 Cartesian Forces:  Max     0.000795313 RMS     0.000151196

 GradGradGradGradGradGradGradGradGradGradGradGradGradGradGradGradGradGrad
 Berny optimization.
 Using GEDIIS/GDIIS optimizer.
 FormGI is forming the generalized inverse of G from B-inverse, IUseBI=4.
 Internal  Forces:  Max     0.000373387 RMS     0.000066511
 Search for a local minimum.
 Step number   3 out of a maximum of  107
 All quantities printed in internal units (Hartrees-Bohrs-Radians)
 Mixed Optimization -- En-DIIS/RFO-DIIS
 Swapping is turned off.
 Update second derivatives using D2CorX and points    1    2    3
 DE= -9.00D-06 DEPred=-7.58D-06 R= 1.19D+00
 TightC=F SS=  1.41D+00  RLast= 7.09D-03 DXNew= 5.0454D-01 2.1266D-02
 Trust test= 1.19D+00 RLast= 7.09D-03 DXMaxT set to 3.00D-01
 ITU=  1  1  0
     Eigenvalues ---    0.01881   0.01905   0.01931   0.02103   0.02130
     Eigenvalues ---    0.02161   0.02168   0.02200   0.02212   0.02249
     Eigenvalues ---    0.02272   0.02282   0.02294   0.02324   0.02384
     Eigenvalues ---    0.02399   0.14493   0.16000   0.16000   0.16000
     Eigenvalues ---    0.16000   0.16000   0.16001   0.16683   0.20279
     Eigenvalues ---    0.22039   0.22403   0.22556   0.24322   0.24563
     Eigenvalues ---    0.26315   0.35501   0.35885   0.35924   0.35977
     Eigenvalues ---    0.35984   0.36030   0.36261   0.37974   0.40532
     Eigenvalues ---    0.41467   0.42516   0.42859   0.44113   0.45236
     Eigenvalues ---    0.48121   0.49508   0.50175   0.51296   0.53683
     Eigenvalues ---    0.54809
 En-DIIS/RFO-DIIS/Sim-DIIS IScMMF=       -3 using points:     3    2
 RFO step:  Lambda=-1.64699710D-06.
 DidBck=F Rises=F RFO-DIIS coefs:    1.27680   -0.27680
 Iteration  1 RMS(Cart)=  0.00031630 RMS(Int)=  0.00000011
 Iteration  2 RMS(Cart)=  0.00000017 RMS(Int)=  0.00000004
 Variable       Old X    -DE/DX   Delta X   Delta X   Delta X     New X
                                 (Linear)    (Quad)   (Total)
    R1        2.59023  -0.00001  -0.00031   0.00026  -0.00005   2.59018
    R2        2.66535  -0.00010  -0.00010  -0.00013  -0.00023   2.66512
    R3        2.04440  -0.00003  -0.00009  -0.00003  -0.00011   2.04429
    R4        2.67649  -0.00013  -0.00016  -0.00017  -0.00033   2.67616
    R5        2.04558  -0.00000  -0.00001   0.00001   0.00001   2.04559
    R6        2.69669  -0.00004  -0.00015   0.00006  -0.00009   2.69661
    R7        2.67739  -0.00002  -0.00026   0.00020  -0.00006   2.67734
    R8        2.67385  -0.00024  -0.00034  -0.00036  -0.00070   2.67315
    R9        2.68861  -0.00011   0.00002  -0.00033  -0.00031   2.68829
   R10        2.59179  -0.00003  -0.00012   0.00006  -0.00006   2.59173
   R11        2.04052   0.00000  -0.00016   0.00014  -0.00002   2.04050
   R12        2.04394  -0.00001  -0.00007   0.00004  -0.00004   2.04391
   R13        2.59579  -0.00017  -0.00058   0.00003  -0.00054   2.59525
   R14        2.57897   0.00037   0.00047   0.00054   0.00101   2.57998
   R15        2.66333   0.00008   0.00001   0.00028   0.00029   2.66362
   R16        2.04790  -0.00009  -0.00016  -0.00018  -0.00034   2.04756
   R17        2.58750  -0.00017  -0.00018  -0.00022  -0.00040   2.58710
   R18        2.04391   0.00001  -0.00004   0.00007   0.00003   2.04394
   R19        2.04410  -0.00002  -0.00013   0.00005  -0.00008   2.04402
   R20        1.81710  -0.00002   0.00000  -0.00007  -0.00007   1.81703
    A1        2.09976  -0.00005  -0.00028  -0.00003  -0.00031   2.09945
    A2        2.09495   0.00002  -0.00004   0.00008   0.00004   2.09499
    A3        2.08847   0.00003   0.00032  -0.00005   0.00027   2.08874
    A4        2.11356   0.00000   0.00008   0.00000   0.00008   2.11364
    A5        2.10036   0.00000  -0.00021   0.00014  -0.00007   2.10029
    A6        2.06926  -0.00000   0.00014  -0.00014  -0.00001   2.06926
    A7        2.06448   0.00002   0.00022  -0.00010   0.00012   2.06460
    A8        2.13071  -0.00002  -0.00010  -0.00001  -0.00011   2.13061
    A9        2.08800   0.00000  -0.00012   0.00011  -0.00001   2.08798
   A10        2.08540  -0.00001  -0.00030   0.00015  -0.00014   2.08526
   A11        2.06478  -0.00009  -0.00026  -0.00026  -0.00052   2.06426
   A12        2.13300   0.00010   0.00056   0.00010   0.00066   2.13367
   A13        2.10308   0.00002   0.00011  -0.00001   0.00011   2.10319
   A14        2.07440   0.00006   0.00035   0.00030   0.00065   2.07505
   A15        2.10571  -0.00008  -0.00046  -0.00029  -0.00076   2.10495
   A16        2.10009   0.00002   0.00016  -0.00002   0.00015   2.10023
   A17        2.08860   0.00004   0.00012   0.00026   0.00039   2.08899
   A18        2.09450  -0.00006  -0.00029  -0.00025  -0.00053   2.09396
   A19        2.10844   0.00015   0.00062   0.00028   0.00091   2.10935
   A20        2.03409  -0.00018  -0.00021  -0.00081  -0.00101   2.03308
   A21        2.14065   0.00003  -0.00042   0.00053   0.00011   2.14076
   A22        2.09871  -0.00008  -0.00057  -0.00002  -0.00059   2.09812
   A23        2.09199   0.00006   0.00031   0.00015   0.00046   2.09245
   A24        2.09248   0.00002   0.00026  -0.00013   0.00013   2.09261
   A25        2.10817  -0.00002   0.00022  -0.00022  -0.00000   2.10816
   A26        2.07654   0.00003  -0.00008   0.00025   0.00016   2.07670
   A27        2.09848  -0.00001  -0.00013  -0.00003  -0.00016   2.09832
   A28        2.09827   0.00004   0.00011   0.00011   0.00022   2.09849
   A29        2.07862   0.00001  -0.00002   0.00012   0.00009   2.07871
   A30        2.10630  -0.00004  -0.00009  -0.00022  -0.00031   2.10599
   A31        1.91397  -0.00009   0.00061  -0.00118  -0.00057   1.91340
    D1       -0.00000   0.00000   0.00000  -0.00000   0.00000   0.00000
    D2        3.14159   0.00000   0.00000  -0.00000  -0.00000   3.14159
[...]

 ----------------------------------------------------------------------
 1\1\GINC-ARTEMIY-VIRTUALBOX\Freq\RB3LYP\6-311++G(3df,3pd)\C10H8O1\ARTE
 MIY\20-Jul-2021\0\\#N Geom=AllCheck Guess=TCheck SCRF=Check GenChk RB3
 LYP/6-311++G(3df,3pd) Freq\\Title Card Required\\0,1\C,-2.7411680396,-
 0.2559965822,-0.0000045435\C,-1.7973156215,-1.2500382103,-0.0000056491
 \C,-0.4143301535,-0.9455509002,-0.0000046293\C,-0.0238860103,0.4270407
 231,-0.0000024347\C,-1.0178845327,1.433424983,-0.0000013941\C,-2.34789
 46207,1.0983008902,-0.0000024088\H,-3.1007817333,1.8748395839,-0.00000
 15243\H,-0.7119143593,2.468970489,0.0000003037\C,1.3655910923,0.732392
 0539,-0.000001383\C,2.3066061078,-0.2678466776,-0.0000026023\C,1.90547
 8977,-1.6191789493,-0.0000046254\C,0.5786112722,-1.9562641305,-0.00000
 55415\H,0.2730148994,-2.9938698974,-0.0000070938\H,2.6633457473,-2.390
 8658111,-0.0000054576\H,3.3608221409,-0.0174751302,-0.0000021823\O,1.6
 981460997,2.0567106856,-0.0000000535\H,2.6552399313,2.1492597385,0.000
 0024021\H,-2.0982915202,-2.2898318883,-0.0000072661\H,-3.7931573709,-0
 .5082107815,-0.0000053159\\Version=ES64L-G16RevA.03\HF=-461.2719256\RM
 SD=3.291e-09\RMSF=3.080e-06\ZeroPoint=0.1513447\Thermal=0.1593529\Dipo
 le=0.4678777,-0.0551149,0.0000012\DipoleDeriv=0.0602708,0.1026464,0.00
 00002,0.0228717,0.0427114,0.0000003,0.0000001,0.0000003,-0.1305631,-0.
 0735759,0.0778799,0.0000001,0.0767447,0.0885922,0.0000003,0.0000001,0.
 0000003,-0.1314836,0.205606,-0.1202353,0.,-0.1811797,-0.0122425,-0.000
 0001,-0.0000002,-0.0000001,0.0094576,-0.0182605,-0.2820785,-0.0000003,
 -0.0182318,-0.1923596,-0.0000003,-0.0000001,-0.0000005,0.0103316,-0.01
 13364,0.0733266,0.0000002,-0.0391298,0.0241928,0.0000002,0.,0.0000003,
 -0.1140768,-0.0580523,-0.1293917,-0.0000002,-0.0021066,0.0536192,0.000
 0003,0.,0.0000002,-0.1432908,-0.0238413,0.082683,0.,0.0913659,-0.02657
 48,-0.0000002,0.,-0.0000002,0.1322446,0.0731739,-0.0297085,0.,-0.00302
 41,-0.0304605,-0.0000002,0.,-0.0000003,0.1272196,0.319924,0.3248874,0.
 0000004,0.5491081,1.2994897,0.0000018,0.0000005,0.0000011,0.0621431,-0
 .0091605,0.2982117,0.0000003,-0.1850589,-0.3244025,-0.0000002,-0.00000
 04,0.0000001,-0.1808504,0.1146852,-0.0243271,0.,0.1918088,0.1949649,0.
 0000006,0.0000004,0.0000004,-0.1344816,-0.2404065,0.0482356,0.,0.03560
 96,0.0040181,0.0000002,0.,0.0000003,-0.1558495,0.0325579,-0.0650032,-0
 .0000001,-0.0168555,-0.0799286,-0.0000003,0.,-0.0000003,0.135346,-0.01
 8075,0.085889,0.,0.0874537,-0.0228285,-0.0000002,0.,-0.0000002,0.12956
 05,-0.1035643,-0.0663135,-0.0000001,-0.0815171,0.0265531,-0.0000002,0.
 ,-0.0000002,0.1476626,-0.3792999,-0.4069953,-0.0000002,-0.5675837,-1.3
 412763,-0.0000017,0.,-0.0000007,-0.3279227,0.1913297,0.0812768,-0.0000
 002,0.1437093,0.3246935,0.0000003,-0.0000002,-0.0000001,0.3090381,0.04
 30271,-0.0125714,0.,-0.0590864,-0.0862075,-0.0000003,-0.0000001,-0.000
 0003,0.1248639,-0.1050019,-0.0384121,-0.0000001,-0.0448981,0.0574458,-
 0.0000001,-0.0000002,-0.0000001,0.130651\Polar=172.3890438,-8.0815717,
 136.3745009,0.0000328,0.000096,67.4696989\Quadrupole=6.5636098,0.20353
 62,-6.767146,1.8057505,0.0000107,0.0000171\PG=C01 [X(C10H8O1)]\NImag=0
 \\0.74391253,-0.01436324,0.64758043,0.00000021,0.00000075,0.13185061,-
 0.24731524,0.09468255,0.00000007,0.64610574,0.15487492,-0.25843733,-0.
 00000023,-0.02449040,0.75045176,0.00000016,-0.00000026,-0.05904924,0.0
 0000017,0.00000089,0.13278880,-0.04721896,0.05681869,0.00000006,-0.259
 39653,-0.06705398,-0.00000018,0.67407490,0.02061864,0.02753186,0.00000
 004,-0.03649883,-0.12982023,-0.00000011,-0.01653736,0.63085255,0.,0.00
 000006,0.00436250,-0.00000013,-0.00000012,-0.06487626,0.00000020,0.000
 00067,0.15835207,-0.00545969,0.02915437,0.00000004,0.01056494,-0.03814
 433,-0.00000006,-0.14906043,-0.03136461,-0.00000008,0.66849464,0.00848
 561,-0.04099865,-0.00000005,-0.05390428,0.00291738,-0.00000002,-0.0271
 1894,-0.24493156,-0.00000028,-0.01122125,0.64608207,0.00000001,-0.0000
 0005,-0.00448442,-0.00000008,-0.00000002,0.00336865,-0.00000007,-0.000
 00028,-0.06479050,0.00000019,0.00000071,0.14934832,-0.00187248,-0.0796
 7027,-0.00000012,-0.05161896,0.01753327,0.,0.05103857,0.02626306,0.000
 00006,-0.17516546,0.06382611,0.00000004,0.69548598,-0.03596542,0.00050
 548,-0.00000002,0.01102847,-0.00589855,0.,0.00881484,-0.03827611,-0.00
 000006,0.09431216,-0.21387172,-0.00000018,0.06008987,0.70555205,-0.000
 00006,-0.00000004,0.00504732,0.,0.,-0.00080879,0.00000003,-0.00000005,
 0.00323111,0.00000009,-0.00000020,-0.06334681,0.00000032,0.00000087,0.
 13420782,-0.13623043,-0.01218578,-0.00000004,0.05092756,0.00400672,0.0
 0000002,-0.03231394,-0.01587299,-0.00000004,-0.06256517,0.03808280,0.0
 0000003,-0.36095826,-0.08956995,-0.00000025,0.72742194,-0.07687641,-0.
 27692338,-0.00000035,0.04753583,-0.05278472,-0.00000007,-0.03409083,-0
 .01270262,-0.00000003,-0.00002796,0.03936535,0.00000005,-0.02838221,-0
 .14164725,-0.00000013,-0.03806397,0.66259458,-0.00000014,-0.00000032,-
 0.06003056,0.00000009,-0.00000008,0.00518995,-0.00000006,-0.00000002,-
 0.00458820,-0.00000003,0.00000007,0.00492808,-0.00000016,-0.00000016,-
 0.05940579,0.00000017,0.00000077,0.13029047,0.00957046,-0.00821099,0.,
 0.00060020,-0.00222715,0.,-0.00049029,-0.00072279,0.,-0.00456086,-0.00
 310343,0.,-0.01742102,0.02411100,0.00000003,-0.19239516,0.13788506,0.0
 0000015,0.20299791,0.02300075,-0.01648729,-0.00000002,-0.00326206,-0.0
 0461313,-0.00000002,-0.00108146,-0.00002671,0.,-0.00240625,0.00070813,
 -0.00000001,-0.00716628,0.00915974,0.,0.13852447,-0.20235200,-0.000000
 20,-0.14887003,0.21220943,0.00000004,-0.00000003,0.00253023,0.,-0.0000
 0002,0.00562772,0.,0.,-0.00086390,0.,-0.00000001,0.00890797,-0.0000000
 2,0.00000002,0.00363500,0.00000015,-0.00000020,-0.03672418,-0.00000016
 ,0.00000022,0.02551896,-0.00535456,-0.00035579,0.,-0.00092209,0.000512
 10,0.,-0.00317937,0.00261382,0.,0.01102871,0.02146976,0.00000004,-0.08
 075609,-0.07585926,-0.00000013,-0.00390496,-0.03054181,-0.00000005,0.0
 0113770,0.00040461,0.,0.08316875,-0.00112945,0.00169888,-0.00000001,0.
 00052729,0.00046834,0.,0.00377980,-0.00048033,0.,-0.00692154,-0.017676
 06,-0.00000004,-0.07462224,-0.31977929,-0.00000046,0.00018193,-0.00239
 736,-0.00000001,-0.00030130,0.00087635,0.,0.08200239,0.33839627,0.,-0.
 00000001,0.00867307,0.,0.,-0.00112355,0.,0.,0.00506528,0.,-0.00000002,
 0.00354691,-0.00000013,-0.00000046,-0.03762881,0.,-0.00000002,0.004398
 04,0.,0.,-0.00520813,0.00000015,0.00000051,0.02577712,0.00354561,-0.02
 095017,-0.00000003,-0.01463111,0.00446550,0.,0.01691291,-0.05653083,-0
 .00000008,-0.24532809,-0.01756457,-0.00000011,-0.06207836,0.01549849,0
 .,0.02161146,0.02092832,0.00000004,0.00011827,0.00003363,0.,0.00063161
 ,-0.00152049,0.,0.68256469,-0.00059178,0.00194734,0.,0.00238562,-0.007
 67882,-0.00000002,-0.03978397,0.00628132,0.,-0.04672360,-0.11797912,-0
 .00000009,0.02718098,0.01534635,0.00000004,0.00292692,-0.00973582,-0.0
 0000002,0.00162942,0.00030685,0.,0.00158889,-0.00216327,0.,-0.04224230
 ,0.68391816,0.,0.,-0.00097389,0.,-0.00000002,0.00552763,-0.00000005,-0
 .00000001,-0.00207409,-0.00000015,-0.00000007,-0.06687544,0.00000001,0
 .00000002,0.00394468,0.,-0.00000001,0.00629413,0.,0.,0.00022530,0.,0.,
 -0.00259717,0.00000019,0.00000068,0.15291194,-0.00164573,0.00348566,0.
 ,0.00249261,-0.00038610,0.,-0.00644984,0.00722589,0.,-0.03874174,0.018
 62555,0.00000002,0.00189507,-0.00579552,0.,-0.00358187,-0.00375060,-0.
 00000001,-0.00060039,-0.00009612,0.,0.00042053,-0.00010580,0.,-0.25185
 323,0.14849787,0.00000016,0.72689729,0.00444462,-0.01894088,-0.0000000
 3,-0.01911736,0.00372076,0.,0.03015750,-0.03649571,-0.00000003,0.04888
 898,0.02195003,0.00000004,-0.02406503,0.00733977,0.,0.01454815,0.01533
 907,0.00000003,-0.00005242,0.00022419,0.,-0.00081716,0.00029238,0.,0.0
 7755706,-0.22983259,-0.00000021,-0.00435287,0.66517648,0.,-0.00000003,
 0.00073005,-0.00000003,0.,-0.00093107,0.00000004,-0.00000005,-0.002417
 08,0.00000006,0.00000003,0.00480915,-0.00000004,0.,0.00481977,0.000000
 02,0.00000002,-0.00064428,0.,0.,-0.00060305,0.,0.,-0.00005684,0.000000
 07,-0.00000021,-0.06055862,0.00000009,0.00000074,0.11366905,-0.0047137
 5,0.01620544,0.00000002,0.01985719,-0.00029620,0.,-0.06303304,0.035322
 52,0.00000003,-0.03130870,-0.01202207,-0.00000004,0.01140875,-0.004890
 73,0.,-0.01010337,-0.01056279,-0.00000002,-0.00013080,-0.00016852,0.,0
 .00027671,-0.00002824,0.,0.05560998,0.00235733,0.,-0.13210125,-0.01687
 866,-0.00000003,0.73304855,-0.00381655,0.01488268,0.00000002,0.0193470
 8,-0.00783821,0.,-0.00209638,0.03722751,0.00000004,-0.02812039,-0.0098
 2105,-0.00000003,0.01269600,-0.00486019,0.,-0.00920190,-0.01114349,-0.
 00000002,-0.00029753,-0.00017618,0.,0.00038817,-0.00018133,0.,0.050155
 76,-0.05501218,-0.00000005,-0.07980846,-0.28050489,-0.00000034,-0.0333
 4486,0.65847876,0.,0.00000002,-0.00036766,0.00000003,-0.00000002,0.005
 69393,-0.00000003,0.00000006,0.00434317,-0.00000005,-0.00000002,-0.001
 25001,0.00000002,0.,-0.00092628,-0.00000002,-0.00000002,0.00086213,0.,
 0.,0.00004625,0.,0.,-0.00031488,0.00000008,-0.00000008,-0.00200126,-0.
 00000013,-0.00000033,-0.05234528,0.00000015,0.00000073,0.12961728,0.00
 348483,-0.02602131,-0.00000004,-0.06166259,0.03316468,0.00000002,-0.17
 091452,0.06635865,0.00000004,0.04727725,0.01989840,0.00000005,-0.01370
 484,0.00065422,0.,0.01109825,0.01479287,0.00000003,0.00037561,0.000346
 55,0.,0.00041895,-0.00075685,0.,-0.05539471,0.01952289,0.00000001,-0.0
 0324563,-0.07659594,-0.00000011,-0.36649147,-0.03128667,-0.00000015,0.
 69780703,-0.00707673,0.00914848,0.,0.01302545,0.00984549,0.00000001,0.
 09541610,-0.21369508,-0.00000016,0.00740387,-0.03598414,-0.00000005,0.
 00113796,-0.00496249,-0.00000001,-0.00484429,-0.00606408,0.,0.00006446
 ,0.00000960,0.,0.00096647,-0.00076437,0.,0.01140886,-0.00095528,-0.000
 00001,-0.03377132,-0.00396824,-0.00000002,-0.08954782,-0.13898389,-0.0
 0000014,0.06112018,0.69956353,0.,0.,0.00630380,0.,0.00000002,0.0046284
 8,0.00000007,-0.00000017,-0.06355190,0.00000003,-0.00000005,0.00338678
 ,0.,-0.00000002,0.00495047,0.,0.,-0.00102492,0.,0.,-0.00081674,0.,0.,0
 .00013226,0.,0.,0.00152000,-0.00000005,-0.00000004,0.00500526,-0.00000
 023,-0.00000012,-0.05766038,0.00000031,0.00000081,0.12509306,0.0001441
 1,-0.00047466,0.,0.00137782,0.00111703,0.,0.00884174,0.02138080,0.0000
 0003,-0.00294102,0.00234600,0.,0.00047812,0.00098965,0.,0.00021061,0.0
 0021435,0.,-0.00002375,-0.00004314,0.,-0.00025390,0.00024811,0.,-0.001
 15993,0.00062152,0.,-0.00512957,-0.00012843,0.,-0.00432142,-0.03136609
 ,-0.00000005,-0.07984412,-0.07382373,-0.00000012,0.08186051,0.00037950
 ,-0.00001442,0.,-0.00192293,0.00101508,0.,-0.00840694,-0.01837901,-0.0
 0000003,0.00384222,-0.00071083,0.,-0.00107917,-0.00084459,0.,0.0001207
 4,0.00024811,0.,0.00005757,0.00004553,0.,0.00030432,-0.00022746,0.,0.0
 0076215,0.00025778,0.,-0.00127326,0.00190877,0.,0.00011799,-0.00364335
 ,0.,-0.07416613,-0.31351296,-0.00000042,0.08061713,0.33273403,0.,0.,-0
 .00018643,0.,0.,-0.00298346,0.,-0.00000002,0.00222446,0.,0.,0.00445248
 ,0.,0.,0.00027451,0.,0.,-0.00010655,0.,0.,0.00004165,0.,0.,0.00025330,
 0.,0.,-0.00053529,0.,0.,0.00782469,0.,-0.00000002,0.00277693,-0.000000
 12,-0.00000042,-0.03282077,0.00000014,0.00000046,0.02380547,-0.0006151
 3,-0.00001453,0.,-0.00005988,0.00146667,0.,-0.00474129,-0.00326864,0.,
 -0.00034929,-0.00066007,0.,0.00034259,0.00009075,0.,-0.00011269,-0.000
 30417,0.,-0.00000990,0.00001704,0.,-0.00002310,0.00003491,0.,0.0005004
 0,-0.00236728,0.,0.00913434,-0.00818671,-0.00000001,-0.19435272,0.1381
 2493,0.00000014,-0.01664822,0.02439365,0.00000003,0.00108884,-0.000341
 63,0.,0.20479053,-0.00013296,0.00023168,0.,0.00011066,0.00027926,0.,-0
 .00225643,0.00072323,-0.00000001,-0.00095640,0.00000814,0.,0.00029680,
 -0.00001034,0.,-0.00015999,-0.00019074,0.,0.00001516,-0.00000852,0.,-0
 .00003660,0.00001592,0.,-0.00343024,-0.00348363,-0.00000001,0.02238766
 ,-0.01703606,-0.00000002,0.13851885,-0.20056252,-0.00000018,-0.0066949
 1,0.00930194,0.,0.00038992,0.00083902,0.,-0.14901659,0.21043389,0.,0.,
 -0.00061042,0.,0.,0.00012684,0.,-0.00000001,0.00888672,0.,0.,-0.000913
 48,0.,0.,-0.00057245,0.,0.,0.00007440,0.,0.,0.00008770,0.,0.,0.0000332
 3,0.,-0.00000001,0.00542834,0.00000003,-0.00000004,0.00260052,0.000000
 15,-0.00000018,-0.03694984,-0.00000002,0.00000001,0.00410461,0.,0.,-0.
 00505912,-0.00000015,0.00000021,0.02545688,0.00004313,0.00018596,0.,0.
 00013120,-0.00009655,0.,0.00042306,0.00052490,0.,-0.00061909,0.0042488
 9,0.,-0.00059648,-0.00100750,0.,-0.00034756,0.00038098,0.,-0.00012518,
 -0.00002713,0.,-0.00003455,0.00009770,0.,-0.01950289,-0.01098158,-0.00
 000002,-0.31570923,-0.05793799,-0.00000010,-0.00531707,0.00018879,0.,0
 .00187495,-0.00172404,0.,-0.00039385,0.00007342,0.,0.00082067,-0.00027
 713,0.,0.33677610,0.00001732,-0.00037992,0.,-0.00043721,0.00028193,0.,
 0.00072827,-0.00100378,0.,0.00283336,-0.00339984,-0.00000001,0.0006291
 3,0.00083522,0.,0.00042017,-0.00001761,0.,0.00010396,0.00003739,0.,-0.
 00003493,0.00002578,0.,0.02224013,0.00633117,0.,-0.05879017,-0.0720947
 4,-0.00000006,-0.03094275,-0.00196597,0.,-0.00048837,-0.00552947,-0.00
 000001,-0.00147708,-0.00029084,0.,0.00049856,0.00108015,0.,0.06440161,
 0.07281481,0.,0.,0.00003015,0.,0.,-0.00053869,0.,0.,-0.00082213,0.,-0.
 00000001,0.00677104,0.,0.,0.00014118,0.,0.,-0.00070464,0.,0.,-0.000009
 17,0.,0.,0.00028733,0.00000003,0.,0.00454711,-0.00000010,-0.00000005,-
 0.03119656,-0.00000005,0.,0.00117049,0.,-0.00000002,0.00520722,0.,0.,0
 .00048194,0.,0.,-0.00288200,0.00000011,0.00000008,0.02173930,-0.000502
 98,0.00191543,0.,0.00165180,-0.00252907,0.,-0.00837458,0.00629691,0.,-
 0.01895270,-0.05094020,-0.00000007,0.00287296,-0.00144003,0.,-0.001693
 11,-0.00265515,0.,-0.00008054,0.00006141,0.,-0.00262006,-0.00130778,0.
 ,-0.11703224,-0.05925450,-0.00000015,0.01336061,0.02676604,0.00000003,
 -0.00696185,-0.00197518,-0.00000001,0.00424079,-0.00232626,0.,0.000363
 91,-0.00011890,0.,0.00032067,0.00099137,0.,0.00305233,0.00110928,0.,0.
 64323643,0.00018316,0.00099689,0.,0.00077844,0.00055203,0.,0.00200729,
 0.00049923,0.,-0.02021842,-0.01921093,-0.00000004,0.00447532,-0.002807
 57,0.,-0.00242918,0.00117238,0.,-0.00019081,0.00003851,0.,-0.00093046,
 0.00161566,0.,-0.01075826,-0.27685376,-0.00000020,-0.01029530,-0.05928
 352,-0.00000006,0.00628012,0.00497275,0.,-0.00258950,-0.00537178,0.,-0
 .00024118,0.00007616,0.,-0.00053218,-0.00186189,0.,-0.00021196,0.00372
 693,0.00000001,0.09114964,0.39657803,0.,0.,-0.00041509,0.,0.,0.0001055
 1,-0.00000001,0.,0.00398940,-0.00000002,-0.00000006,0.00541994,0.,0.,-
 0.00188992,0.,0.,-0.00012824,0.,0.,0.00035805,0.,0.,-0.00013013,-0.000
 00014,-0.00000031,-0.04213880,-0.00000001,-0.00000009,0.01027397,0.000
 00001,0.,0.00895458,0.,0.,-0.00158805,0.,0.,-0.00093484,0.,0.,0.000059
 42,0.,0.00000001,-0.00496649,0.00000149,0.00000049,0.02750808,-0.00004
 325,-0.00010750,0.,0.00000974,-0.00030946,0.,-0.00087714,0.00055416,0.
 ,0.00256294,-0.00111658,0.,0.00006966,0.00021265,0.,0.00023091,-0.0001
 6209,0.,-0.00000099,-0.00000054,0.,0.00017526,-0.00024015,0.,-0.015176
 96,-0.00321269,-0.00000002,0.00481885,0.00572988,0.,-0.00119369,-0.000
 35070,0.,0.00052186,0.00051758,0.,-0.00001938,-0.00003644,0.,0.0000436
 2,0.00026629,0.,-0.00044507,-0.00087093,0.,-0.51211064,-0.05625254,-0.
 00000130,0.52147633,0.00019370,0.00031674,0.,0.00032152,-0.00068787,0.
 ,-0.00201777,0.00089728,0.,-0.00005714,-0.00715278,-0.00000001,0.00137
 661,-0.00051461,0.,-0.00031199,0.00010448,0.,0.00002937,-0.00002418,0.
 ,-0.00022066,0.00054757,0.,-0.05028587,-0.01033460,-0.00000012,-0.0017
 5062,0.00226762,0.,-0.00018590,-0.00085905,0.,0.00075014,0.00021666,0.
 ,0.00019108,0.00002786,0.,0.00000615,0.00021604,0.,0.00219192,-0.00049
 033,0.,-0.00549856,-0.04494919,-0.00000003,0.05539204,0.06038044,0.,0.
 ,0.00007945,0.,0.,-0.00022475,0.,0.,0.00110590,0.,0.,0.00219796,0.,0.,
 -0.00018359,0.,0.,0.00008445,0.,0.,-0.00004733,0.,0.,-0.00014408,-0.00
 000003,0.00000003,-0.00182860,0.,0.00000001,-0.00108997,0.,0.,-0.00086
 301,0.,0.,0.00016153,0.,0.,0.00002901,0.,0.,0.00002266,0.,0.,0.0005829
 9,-0.00000130,-0.00000019,-0.00462378,0.00000132,0.00000016,0.00470948
 ,0.01014232,0.02254230,0.00000003,-0.08066337,-0.07405907,-0.00000012,
 -0.00484695,-0.03028375,-0.00000005,-0.00531908,0.00021856,0.,-0.00098
 979,0.00051083,0.,-0.00262172,0.00302214,0.,0.00028445,0.00110718,0.,0
 .00012100,-0.00007111,0.,0.00049260,-0.00160768,0.,-0.00003008,-0.0000
 1437,0.,0.00009798,0.00036380,0.,0.00150407,-0.00150191,0.,-0.00028418
 ,0.00101805,0.,-0.00001674,0.00001082,0.,-0.00000456,0.00007006,0.,-0.
 00063501,-0.00002810,0.,-0.00005814,-0.00014900,0.,0.08184608,-0.00890
 715,-0.01801760,-0.00000004,-0.07409703,-0.31125469,-0.00000043,-0.000
 35220,-0.00477681,-0.00000001,-0.00118239,0.00160056,0.,0.00028049,0.0
 0047248,0.,0.00432720,-0.00088754,-0.00000001,-0.00048096,-0.00094650,
 0.,-0.00004617,-0.00006339,0.,0.00068386,-0.00036273,0.,-0.00003038,0.
 00026376,0.,-0.00040145,0.00007135,0.,0.00150857,0.00083115,0.,-0.0005
 4879,0.00049635,0.,-0.00006041,-0.00000728,0.,-0.00002966,0.00002969,0
 .,-0.00024475,-0.00004950,0.,-0.00000170,-0.00001105,0.,0.07930785,0.3
 3164142,-0.00000001,-0.00000002,0.00404162,-0.00000013,-0.00000042,-0.
 03635016,0.,-0.00000002,0.00332348,0.,0.,0.00529690,0.,0.,-0.00115048,
 0.,-0.00000001,0.00843780,0.,0.,0.00017710,0.,0.,-0.00106599,0.,0.,0.0
 0002792,0.,0.,0.00001458,0.,0.,-0.00016591,0.,0.,-0.00315429,0.,0.,0.0
 0028716,0.,0.,0.00014065,0.,0.,0.00005014,0.,0.,0.00016058,0.,0.,0.000
 03094,0.00000014,0.00000047,0.02492155,-0.31987078,-0.06263614,-0.0000
 0020,-0.01744903,-0.00754856,-0.00000002,-0.00039431,0.00392045,0.,0.0
 0044284,0.00044972,0.,0.00157006,-0.00178452,0.,-0.00467249,0.00065845
 ,0.,0.00075429,-0.00037410,0.,-0.00033052,0.00013284,0.,0.00017000,0.0
 0005392,0.,0.00006926,0.00005470,0.,-0.00027003,0.00040018,0.,-0.00069
 748,-0.00083846,0.,0.00000546,0.00005232,0.,-0.00011271,-0.00002630,0.
 ,-0.00002590,-0.00001042,0.,-0.00013576,-0.00019610,0.,0.00001606,0.00
 002498,0.,0.00098113,0.00027506,0.,0.33994991,-0.06333853,-0.07464101,
 -0.00000008,0.02398718,0.00948150,0.00000002,0.00307376,-0.00342503,-0
 .00000002,0.00090933,-0.00089499,0.,-0.00080041,-0.00573837,-0.0000000
 2,-0.03049907,-0.00197737,-0.00000002,0.00056143,0.00101877,0.,-0.0014
 0770,-0.00020428,0.,-0.00045101,0.00000282,0.,-0.00001609,-0.00032621,
 0.,0.00046773,-0.00008077,0.,0.00048252,0.00087494,0.,-0.00001248,-0.0
 0002521,0.,0.00011954,0.00003170,0.,-0.00000064,0.00000944,0.,0.000000
 29,0.00015959,0.,-0.00001129,0.00004897,0.,-0.00045659,0.00097033,0.,0
 .06739201,0.07471517,-0.00000020,-0.00000008,-0.03753110,0.00000003,0.
 ,0.00382845,0.,-0.00000002,0.00909997,0.,0.,-0.00077352,0.,-0.00000002
 ,0.00566108,-0.00000005,0.,0.00279792,0.,0.,-0.00288345,0.,0.,0.000103
 01,0.,0.,-0.00084388,0.,0.,0.00009571,0.,0.,-0.00062024,0.,0.,0.000123
 57,0.,0.,0.00017486,0.,0.,-0.00003465,0.,0.,0.00011081,0.,0.,-0.000014
 18,0.,0.,0.00000075,0.,0.,-0.00502359,0.00000022,0.00000010,0.02572846
 \\-0.00000016,-0.00000830,0.,-0.00000820,0.00000377,0.,0.00000739,0.00
 000034,-0.00000002,0.00000393,0.00000096,0.,-0.00000343,-0.00000147,0.
 ,0.00000550,0.00000705,0.,0.00000062,0.00000105,0.,0.00000059,0.000000
 95,0.,-0.00000470,-0.00000748,0.00000007,0.00000252,-0.00000334,-0.000
 00001,0.00000314,0.00000263,-0.00000002,-0.00000822,0.00000104,0.00000
 002,0.00000017,-0.00000061,0.,-0.00000160,-0.00000180,0.,-0.00000065,-
 0.00000057,0.,0.00000162,0.00000470,-0.00000005,0.00000114,-0.00000157
 ,0.00000002,0.00000037,0.00000020,0.,-0.00000006,0.00000244,0.\\\@


 NATURE GIVES TO EVERY TIME AND SEASON SOME BEAUTY OF ITS OWN.

                                                    --DICKENS
 Job cpu time:       0 days 11 hours  1 minutes  8.6 seconds.
 Elapsed time:       0 days  2 hours 45 minutes 23.0 seconds.
 File lengths (MBytes):  RWF=    405 Int=      0 D2E=      0 Chk=     27 Scr=      1
 Normal termination of Gaussian 16 at Tue Jul 20 22:12:51 2021.
