 Entering Gaussian System, Link 0=/home/artemiy/opt/gaussian/g16/g16
 Input=4-nitroaniline_G3MP2.gjf
 Output=4-nitroaniline_G3MP2.log
 Initial command:
 /home/artemiy/opt/gaussian/g16/l1.exe "/home/artemiy/opt/gaussian/scr/Gau-175322.inp" -scrdir="/home/artemiy/opt/gaussian/scr/"
 Entering Link 1 = /home/artemiy/opt/gaussian/g16/l1.exe PID=    175324.
  
 Copyright (c) 1988,1990,1992,1993,1995,1998,2003,2009,2016,
            Gaussian, Inc.  All Rights Reserved.
  
 This is part of the Gaussian(R) 16 program.  It is based on
 the Gaussian(R) 09 system (copyright 2009, Gaussian, Inc.),
 the Gaussian(R) 03 system (copyright 2003, Gaussian, Inc.),
 the Gaussian(R) 98 system (copyright 1998, Gaussian, Inc.),
 the Gaussian(R) 94 system (copyright 1995, Gaussian, Inc.),
 the Gaussian 92(TM) system (copyright 1992, Gaussian, Inc.),
 the Gaussian 90(TM) system (copyright 1990, Gaussian, Inc.),
 the Gaussian 88(TM) system (copyright 1988, Gaussian, Inc.),
 the Gaussian 86(TM) system (copyright 1986, Carnegie Mellon
 University), and the Gaussian 82(TM) system (copyright 1983,
 Carnegie Mellon University). Gaussian is a federally registered
 trademark of Gaussian, Inc.
  
 This software contains proprietary and confidential information,
 including trade secrets, belonging to Gaussian, Inc.
  
 This software is provided under written license and may be
 used, copied, transmitted, or stored only in accord with that
 written license.
  
 The following legend is applicable only to US Government
 contracts under FAR:
  
                    RESTRICTED RIGHTS LEGEND
  
 Use, reproduction and disclosure by the US Government is
 subject to restrictions as set forth in subparagraphs (a)
 and (c) of the Commercial Computer Software - Restricted
 Rights clause in FAR 52.227-19.
  
 Gaussian, Inc.
 340 Quinnipiac St., Bldg. 40, Wallingford CT 06492
  
  
 ---------------------------------------------------------------
 Warning -- This program may not be used in any manner that
 competes with the business of Gaussian, Inc. or will provide
 assistance to any competitor of Gaussian, Inc.  The licensee
 of this program is prohibited from giving any competitor of
 Gaussian, Inc. access to this program.  By using this program,
 the user acknowledges that Gaussian, Inc. is engaged in the
 business of creating and licensing software in the field of
 computational chemistry and represents and warrants to the
 licensee that it is not a competitor of Gaussian, Inc. and that
 it will not use this program in any manner prohibited above.
 ---------------------------------------------------------------
  

 Cite this work as:
 Gaussian 16, Revision A.03,
 M. J. Frisch, G. W. Trucks, H. B. Schlegel, G. E. Scuseria, 
 M. A. Robb, J. R. Cheeseman, G. Scalmani, V. Barone, 
 G. A. Petersson, H. Nakatsuji, X. Li, M. Caricato, A. V. Marenich, 
 J. Bloino, B. G. Janesko, R. Gomperts, B. Mennucci, H. P. Hratchian, 
 J. V. Ortiz, A. F. Izmaylov, J. L. Sonnenberg, D. Williams-Young, 
 F. Ding, F. Lipparini, F. Egidi, J. Goings, B. Peng, A. Petrone, 
 T. Henderson, D. Ranasinghe, V. G. Zakrzewski, J. Gao, N. Rega, 
 G. Zheng, W. Liang, M. Hada, M. Ehara, K. Toyota, R. Fukuda, 
 J. Hasegawa, M. Ishida, T. Nakajima, Y. Honda, O. Kitao, H. Nakai, 
 T. Vreven, K. Throssell, J. A. Montgomery, Jr., J. E. Peralta, 
 F. Ogliaro, M. J. Bearpark, J. J. Heyd, E. N. Brothers, K. N. Kudin, 
 V. N. Staroverov, T. A. Keith, R. Kobayashi, J. Normand, 
 K. Raghavachari, A. P. Rendell, J. C. Burant, S. S. Iyengar, 
 J. Tomasi, M. Cossi, J. M. Millam, M. Klene, C. Adamo, R. Cammi, 
 J. W. Ochterski, R. L. Martin, K. Morokuma, O. Farkas, 
 J. B. Foresman, and D. J. Fox, Gaussian, Inc., Wallingford CT, 2016.
 
 ******************************************
 Gaussian 16:  ES64L-G16RevA.03 25-Dec-2016
                 5-Feb-2023 
 ******************************************
 %mem=7GB
 %nprocshared=4
 Will use up to    4 processors via shared memory.
 ----------------
 # g3mp2 geom=gic
 ----------------
 1/18=20,19=15,38=1,145=2/1,3;
 2/9=110,12=2,17=6,18=5,40=1/2;
 3/5=33,7=1,11=9,25=1,30=1,71=1/1,2,3;
 4//1;
 5/5=2,38=5/2;
 6/7=2,8=2,9=2,10=2,28=1/1;
 7//1,2,3,16;
 1/18=20,19=15,145=2/3(2);
 2/9=110/2;
 99//99;
 2/9=110/2;
 3/5=33,7=1,11=9,25=1,30=1,71=1/1,2,3;
 4/5=5,16=3,69=1/1;
 5/5=2,38=5/2;
 7//1,2,3,16;
 1/18=20,19=15,145=2/3(-5);
 2/9=110/2;
 6/7=2,8=2,9=2,10=2,19=2,28=1/1;
 99/9=1/99;
 -------------------
 CAS 1001-01-1117
 -------------------
 Symbolic Z-matrix:
 Charge =  0 Multiplicity = 1
 C                     0.05152   1.20977  -0.00029 
 C                    -0.64208  -0.00001   0.00031 
 C                     0.0515   -1.20979  -0.00174 
 C                     1.42419  -1.20907  -0.00589 
 C                     2.13707  -0.00002  -0.0071 
 C                     1.4242    1.20904  -0.00432 
 N                    -2.06653   0.00001   0.00119 
 O                    -2.63756   1.07545  -0.00032 
 O                    -2.63758  -1.07542   0.00298 
 H                    -0.50807  -2.13242  -0.00209 
 H                     1.96877  -2.14133  -0.00767 
 H                    -0.50807   2.13239   0.00052 
 H                     1.96878   2.14131  -0.00478 
 N                     3.4943    0.        0.02878 
 H                     3.99397  -0.85995  -0.10958 
 H                     3.99365   0.86034  -0.10836 
 
 Initializing the GIC definitions file.

 GradGradGradGradGradGradGradGradGradGradGradGradGradGradGradGradGradGrad
 Berny optimization.
 Initialization pass.
                           ----------------------------
                           !    Initial Parameters    !
                           ! (Angstroms and Degrees)  !
 --------------------------                            --------------------------
 ! Name  Definition              Value          Derivative Info.                !
 --------------------------------------------------------------------------------
 ! R1    R(1,2)                  1.3945         estimate D2E/DX2                !
 ! R2    R(1,6)                  1.3727         estimate D2E/DX2                !
 ! R3    R(1,12)                 1.0791         estimate D2E/DX2                !
 ! R4    R(2,3)                  1.3945         estimate D2E/DX2                !
 ! R5    R(2,7)                  1.4245         estimate D2E/DX2                !
 ! R6    R(3,4)                  1.3727         estimate D2E/DX2                !
 ! R7    R(3,10)                 1.0791         estimate D2E/DX2                !
 ! R8    R(4,5)                  1.4036         estimate D2E/DX2                !
 ! R9    R(4,11)                 1.0797         estimate D2E/DX2                !
 ! R10   R(5,6)                  1.4036         estimate D2E/DX2                !
 ! R11   R(5,14)                 1.3577         estimate D2E/DX2                !
 ! R12   R(6,13)                 1.0797         estimate D2E/DX2                !
 ! R13   R(7,8)                  1.2176         estimate D2E/DX2                !
 ! R14   R(7,9)                  1.2176         estimate D2E/DX2                !
 ! R15   R(14,15)                1.0042         estimate D2E/DX2                !
 ! R16   R(14,16)                1.0042         estimate D2E/DX2                !
 ! A1    A(2,1,6)              119.7965         estimate D2E/DX2                !
 ! A2    A(2,1,12)             118.9354         estimate D2E/DX2                !
 ! A3    A(6,1,12)             121.2681         estimate D2E/DX2                !
 ! A4    A(1,2,3)              120.3471         estimate D2E/DX2                !
 ! A5    A(1,2,7)              119.826          estimate D2E/DX2                !
 ! A6    A(3,2,7)              119.8269         estimate D2E/DX2                !
 ! A7    A(2,3,4)              119.7961         estimate D2E/DX2                !
 ! A8    A(2,3,10)             118.9374         estimate D2E/DX2                !
 ! A9    A(4,3,10)             121.2663         estimate D2E/DX2                !
 ! A10   A(3,4,5)              120.5546         estimate D2E/DX2                !
 ! A11   A(3,4,11)             120.2617         estimate D2E/DX2                !
 ! A12   A(5,4,11)             119.1837         estimate D2E/DX2                !
 ! A13   A(4,5,6)              118.9515         estimate D2E/DX2                !
 ! A14   A(4,5,14)             120.5119         estimate D2E/DX2                !
 ! A15   A(6,5,14)             120.5077         estimate D2E/DX2                !
 ! A16   A(1,6,5)              120.5542         estimate D2E/DX2                !
 ! A17   A(1,6,13)             120.261          estimate D2E/DX2                !
 ! A18   A(5,6,13)             119.1848         estimate D2E/DX2                !
 ! A19   A(2,7,8)              117.9676         estimate D2E/DX2                !
 ! A20   A(2,7,9)              117.9674         estimate D2E/DX2                !
 ! A21   A(8,7,9)              124.065          estimate D2E/DX2                !
 ! A22   A(5,14,15)            119.5893         estimate D2E/DX2                !
 ! A23   A(5,14,16)            119.5719         estimate D2E/DX2                !
 ! A24   A(15,14,16)           117.8695         estimate D2E/DX2                !
 ! D1    D(6,1,2,3)              0.0676         estimate D2E/DX2                !
 ! D2    D(6,1,2,7)           -179.8467         estimate D2E/DX2                !
 ! D3    D(12,1,2,3)           179.95           estimate D2E/DX2                !
 ! D4    D(12,1,2,7)             0.0357         estimate D2E/DX2                !
 ! D5    D(2,1,6,5)             -0.0357         estimate D2E/DX2                !
 ! D6    D(2,1,6,13)          -179.9978         estimate D2E/DX2                !
 ! D7    D(12,1,6,5)          -179.9153         estimate D2E/DX2                !
 ! D8    D(12,1,6,13)            0.1225         estimate D2E/DX2                !
 ! D9    D(1,2,3,4)             -0.073          estimate D2E/DX2                !
 ! D10   D(1,2,3,10)          -179.9475         estimate D2E/DX2                !
 ! D11   D(7,2,3,4)            179.8413         estimate D2E/DX2                !
 ! D12   D(7,2,3,10)            -0.0332         estimate D2E/DX2                !
 ! D13   D(1,2,7,8)              0.0913         estimate D2E/DX2                !
 ! D14   D(1,2,7,9)           -179.9321         estimate D2E/DX2                !
 ! D15   D(3,2,7,8)           -179.8235         estimate D2E/DX2                !
 ! D16   D(3,2,7,9)              0.1531         estimate D2E/DX2                !
 ! D17   D(2,3,4,5)              0.0464         estimate D2E/DX2                !
 ! D18   D(2,3,4,11)          -179.9894         estimate D2E/DX2                !
 ! D19   D(10,3,4,5)           179.9179         estimate D2E/DX2                !
 ! D20   D(10,3,4,11)           -0.1179         estimate D2E/DX2                !
 ! D21   D(3,4,5,6)             -0.0146         estimate D2E/DX2                !
 ! D22   D(3,4,5,14)           178.0412         estimate D2E/DX2                !
 ! D23   D(11,4,5,6)          -179.9792         estimate D2E/DX2                !
 ! D24   D(11,4,5,14)           -1.9233         estimate D2E/DX2                !
 ! D25   D(4,5,6,1)              0.0092         estimate D2E/DX2                !
 ! D26   D(4,5,6,13)           179.9718         estimate D2E/DX2                !
 ! D27   D(14,5,6,1)          -178.0468         estimate D2E/DX2                !
 ! D28   D(14,5,6,13)            1.9158         estimate D2E/DX2                !
 ! D29   D(4,5,14,15)           10.9423         estimate D2E/DX2                !
 ! D30   D(4,5,14,16)          171.0413         estimate D2E/DX2                !
 ! D31   D(6,5,14,15)         -171.0322         estimate D2E/DX2                !
 ! D32   D(6,5,14,16)          -10.9332         estimate D2E/DX2                !
 --------------------------------------------------------------------------------
 Trust Radius=3.00D-01 FncErr=1.00D-07 GrdErr=1.00D-07 EigMax=2.50D+02 EigMin=1.00D-04
 Number of steps in this run=     82 maximum allowed number of steps=    100.
 GradGradGradGradGradGradGradGradGradGradGradGradGradGradGradGradGradGrad

                          Input orientation:                          
 ---------------------------------------------------------------------
 Center     Atomic      Atomic             Coordinates (Angstroms)
 Number     Number       Type             X           Y           Z
 ---------------------------------------------------------------------
      1          6           0        0.051518    1.209768   -0.000287
      2          6           0       -0.642078   -0.000011    0.000315
      3          6           0        0.051502   -1.209790   -0.001741
      4          6           0        1.424186   -1.209068   -0.005887
      5          6           0        2.137066   -0.000017   -0.007102
      6          6           0        1.424197    1.209044   -0.004323
      7          7           0       -2.066533    0.000007    0.001195
      8          8           0       -2.637561    1.075447   -0.000320
      9          8           0       -2.637580   -1.075421    0.002976
     10          1           0       -0.508065   -2.132421   -0.002088
     11          1           0        1.968773   -2.141326   -0.007675
     12          1           0       -0.508074    2.132386    0.000516
     13          1           0        1.968779    2.141310   -0.004781
     14          7           0        3.494297    0.000001    0.028778
     15          1           0        3.993969   -0.859947   -0.109577
     16          1           0        3.993655    0.860338   -0.108364
 ---------------------------------------------------------------------
                    Distance matrix (angstroms):
                    1          2          3          4          5
     1  C    0.000000
     2  C    1.394503   0.000000
     3  C    2.419558   1.394497   0.000000
     4  C    2.781189   2.394014   1.372690   0.000000
     5  C    2.411045   2.779154   2.411049   1.403568   0.000000
     6  C    1.372685   2.394019   2.781197   2.418112   1.403574
     7  N    2.439194   1.424456   2.439199   3.694189   4.203608
     8  O    2.692432   2.266840   3.528933   4.660132   4.894256
     9  O    3.528930   2.266835   2.692441   4.063973   4.894266
    10  H    3.388711   2.136618   1.079057   2.141539   3.397630
    11  H    3.860797   3.376661   2.131602   1.079669   2.147913
    12  H    1.079059   2.136603   3.388697   3.859920   3.397641
    13  H    2.131591   3.376663   3.860806   3.394350   2.147930
    14  N    3.649261   4.136473   3.649296   2.397584   1.357705
    15  H    4.454052   4.716407   3.959427   2.595462   2.048919
    16  H    3.959068   4.716146   4.453916   3.300774   2.048752
                    6          7          8          9         10
     6  C    0.000000
     7  N    3.694185   0.000000
     8  O    4.063957   1.217640   0.000000
     9  O    4.660135   1.217637   2.150870   0.000000
    10  H    3.859926   2.641227   3.850347   2.377416   0.000000
    11  H    3.394342   4.568270   5.618363   4.728082   2.476861
    12  H    2.141554   2.641182   2.377360   3.850302   4.264808
    13  H    1.079670   4.568255   4.728049   5.618358   4.939588
    14  N    2.397539   5.560899   6.225521   6.225521   4.535094
    15  H    3.300838   6.122212   6.909043   6.636003   4.679643
    16  H    2.595098   6.121932   6.635584   6.908895   5.406790
                   11         12         13         14         15
    11  H    0.000000
    12  H    4.939581   0.000000
    13  H    4.282637   2.476874   0.000000
    14  N    2.629417   4.535067   2.629360   0.000000
    15  H    2.398695   5.406900   3.622143   1.004154   0.000000
    16  H    3.622192   4.679265   2.398279   1.004164   1.720285
                   16
    16  H    0.000000
 Stoichiometry    C6H6N2O2
 Framework group  C1[X(C6H6N2O2)]
 Deg. of freedom    42
 Full point group                 C1      NOp   1
 Largest Abelian subgroup         C1      NOp   1
 Largest concise Abelian subgroup C1      NOp   1
                         Standard orientation:                         
 ---------------------------------------------------------------------
 Center     Atomic      Atomic             Coordinates (Angstroms)
 Number     Number       Type             X           Y           Z
 ---------------------------------------------------------------------
      1          6           0       -0.023211   -1.209766   -0.001176
      2          6           0       -0.716811    0.000011   -0.000940
      3          6           0       -0.023231    1.209792    0.000070
      4          6           0        1.349457    1.209073    0.002354
      5          6           0        2.062341    0.000024    0.002705
      6          6           0        1.349472   -1.209038    0.000997
      7          7           0       -2.141266   -0.000010    0.000113
      8          8           0       -2.712289   -1.075451    0.002495
      9          8           0       -2.712317    1.075416   -0.000986
     10          1           0       -0.582800    2.132422    0.001097
     11          1           0        1.894044    2.141334    0.003322
     12          1           0       -0.582801   -2.132385   -0.001140
     13          1           0        1.894056   -2.141303    0.000797
     14          7           0        3.419522    0.000006   -0.035016
     15          1           0        3.919379    0.859967    0.102587
     16          1           0        3.919068   -0.860317    0.101522
 ---------------------------------------------------------------------
 Rotational constants (GHZ):           3.9748785           0.8390230           0.6928587
 Standard basis: GTBas1 (6D, 7F)
 There are   162 symmetry adapted cartesian basis functions of A   symmetry.
 There are   162 symmetry adapted basis functions of A   symmetry.
   162 basis functions,   304 primitive gaussians,   162 cartesian basis functions
    36 alpha electrons       36 beta electrons
       nuclear repulsion energy       499.5629795318 Hartrees.
 NAtoms=   16 NActive=   16 NUniq=   16 SFac= 1.00D+00 NAtFMM=   60 NAOKFM=F Big=F
 Integral buffers will be    131072 words long.
 Raffenetti 1 integral format.
 Two-electron integral symmetry is turned on.
 One-electron integrals computed using PRISM.
 NBasis=   162 RedAO= T EigKep=  3.86D-04  NBF=   162
 NBsUse=   162 1.00D-06 EigRej= -1.00D+00 NBFU=   162
 ExpMin= 1.61D-01 ExpMax= 5.48D+03 ExpMxC= 8.25D+02 IAcc=3 IRadAn=         5 AccDes= 0.00D+00
 Harris functional with IExCor=  205 and IRadAn=       5 diagonalized for initial guess.
 HarFok:  IExCor=  205 AccDes= 0.00D+00 IRadAn=         5 IDoV= 1 UseB2=F ITyADJ=14
 ICtDFT=  3500011 ScaDFX=  1.000000  1.000000  1.000000  1.000000
 FoFCou: FMM=F IPFlag=           0 FMFlag=      100000 FMFlg1=           0
         NFxFlg=           0 DoJE=T BraDBF=F KetDBF=T FulRan=T
         wScrn=  0.000000 ICntrl=       500 IOpCl=  0 I1Cent=   200000004 NGrid=           0
         NMat0=    1 NMatS0=      1 NMatT0=    0 NMatD0=    1 NMtDS0=    0 NMtDT0=    0
 Petite list used in FoFCou.
 Keep R1 ints in memory in canonical form, NReq=89332567.
 Requested convergence on RMS density matrix=1.00D-08 within 128 cycles.
 Requested convergence on MAX density matrix=1.00D-06.
 Requested convergence on             energy=1.00D-06.
 No special actions if energy rises.
 SCF Done:  E(RHF) =  -489.205080526     A.U. after   14 cycles
            NFock= 14  Conv=0.77D-08     -V/T= 2.0021

 **********************************************************************

            Population analysis using the SCF density.

 **********************************************************************

 Orbital symmetries:
       Occupied  (A) (A) (A) (A) (A) (A) (A) (A) (A) (A) (A) (A)
                 (A) (A) (A) (A) (A) (A) (A) (A) (A) (A) (A) (A)
                 (A) (A) (A) (A) (A) (A) (A) (A) (A) (A) (A) (A)
       Virtual   (A) (A) (A) (A) (A) (A) (A) (A) (A) (A) (A) (A)
                 (A) (A) (A) (A) (A) (A) (A) (A) (A) (A) (A) (A)
                 (A) (A) (A) (A) (A) (A) (A) (A) (A) (A) (A) (A)
                 (A) (A) (A) (A) (A) (A) (A) (A) (A) (A) (A) (A)
                 (A) (A) (A) (A) (A) (A) (A) (A) (A) (A) (A) (A)
                 (A) (A) (A) (A) (A) (A) (A) (A) (A) (A) (A) (A)
                 (A) (A) (A) (A) (A) (A) (A) (A) (A) (A) (A) (A)
                 (A) (A) (A) (A) (A) (A) (A) (A) (A) (A) (A) (A)
                 (A) (A) (A) (A) (A) (A) (A) (A) (A) (A) (A) (A)
                 (A) (A) (A) (A) (A) (A) (A) (A) (A) (A) (A) (A)
                 (A) (A) (A) (A) (A) (A)
 The electronic state is 1-A.
 Alpha  occ. eigenvalues --  -20.58529 -20.58524 -15.84105 -15.60142 -11.31952
 Alpha  occ. eigenvalues --  -11.27981 -11.27084 -11.27075 -11.24722 -11.24720
 Alpha  occ. eigenvalues --   -1.59684  -1.38397  -1.26549  -1.17736  -1.06949
 Alpha  occ. eigenvalues --   -1.04783  -0.93835  -0.86836  -0.81740  -0.76764
 Alpha  occ. eigenvalues --   -0.73716  -0.72927  -0.70770  -0.70103  -0.64059
 Alpha  occ. eigenvalues --   -0.62579  -0.61598  -0.58759  -0.56348  -0.51719
 Alpha  occ. eigenvalues --   -0.47907  -0.47493  -0.46930  -0.43540  -0.36769
 Alpha  occ. eigenvalues --   -0.31710
 Alpha virt. eigenvalues --    0.07115   0.12479   0.19318   0.20182   0.23980
 Alpha virt. eigenvalues --    0.24343   0.30494   0.31119   0.34189   0.36545
 Alpha virt. eigenvalues --    0.40183   0.42027   0.46710   0.49799   0.51095
 Alpha virt. eigenvalues --    0.52703   0.54794   0.59384   0.69650   0.70958
 Alpha virt. eigenvalues --    0.71307   0.72324   0.78189   0.78947   0.80002
 Alpha virt. eigenvalues --    0.80175   0.80449   0.81402   0.82234   0.88329
 Alpha virt. eigenvalues --    0.89389   0.89769   0.91677   0.95232   0.98031
 Alpha virt. eigenvalues --    0.98743   1.03150   1.03854   1.04680   1.08566
 Alpha virt. eigenvalues --    1.09442   1.09862   1.13355   1.16041   1.16083
 Alpha virt. eigenvalues --    1.19613   1.20465   1.22584   1.23900   1.25113
 Alpha virt. eigenvalues --    1.25608   1.30123   1.32138   1.33054   1.40124
 Alpha virt. eigenvalues --    1.40785   1.46210   1.48173   1.48335   1.53110
 Alpha virt. eigenvalues --    1.59014   1.59146   1.64284   1.66559   1.66939
 Alpha virt. eigenvalues --    1.69387   1.70448   1.72299   1.76244   1.77106
 Alpha virt. eigenvalues --    1.82479   1.99449   2.01187   2.04376   2.05843
 Alpha virt. eigenvalues --    2.07833   2.07958   2.12121   2.13127   2.15199
 Alpha virt. eigenvalues --    2.19441   2.23827   2.27745   2.29568   2.30155
 Alpha virt. eigenvalues --    2.32483   2.36837   2.39033   2.43815   2.44396
 Alpha virt. eigenvalues --    2.47594   2.49009   2.54654   2.56927   2.57966
 Alpha virt. eigenvalues --    2.62829   2.70842   2.72406   2.77889   2.83535
 Alpha virt. eigenvalues --    2.85697   2.90301   2.94026   2.96347   3.06331
 Alpha virt. eigenvalues --    3.06969   3.08818   3.12583   3.19372   3.21824
 Alpha virt. eigenvalues --    3.27345   3.28861   3.41376   3.47205   3.62743
 Alpha virt. eigenvalues --    3.82609   4.16817   4.23753   4.36936   4.43222
 Alpha virt. eigenvalues --    4.50168   4.52438   4.57194   4.73146   4.82398
 Alpha virt. eigenvalues --    5.14864
          Condensed to atoms (all electrons):
               1          2          3          4          5          6
     1  C    4.873832   0.539332  -0.052942  -0.032215  -0.034281   0.533923
     2  C    0.539332   4.908131   0.539338  -0.048095  -0.025823  -0.048093
     3  C   -0.052942   0.539338   4.873828   0.533919  -0.034281  -0.032213
     4  C   -0.032215  -0.048095   0.533919   5.021488   0.549956  -0.039746
     5  C   -0.034281  -0.025823  -0.034281   0.549956   4.414702   0.549947
     6  C    0.533923  -0.048093  -0.032213  -0.039746   0.549947   5.021517
     7  N   -0.047451   0.251612  -0.047450   0.002234  -0.000116   0.002234
     8  O    0.003882  -0.098236   0.004330  -0.000024  -0.000004   0.001035
     9  O    0.004330  -0.098237   0.003884   0.001035  -0.000004  -0.000024
    10  H    0.003104  -0.017206   0.366345  -0.025630   0.001441   0.000023
    11  H    0.000155   0.001273  -0.020964   0.378976  -0.034866   0.002764
    12  H    0.366344  -0.017207   0.003104   0.000023   0.001441  -0.025629
    13  H   -0.020961   0.001273   0.000155   0.002763  -0.034867   0.378972
    14  N    0.002947   0.000247   0.002947  -0.065324   0.303135  -0.065324
    15  H   -0.000080  -0.000001   0.000061  -0.001251  -0.027624   0.002966
    16  H    0.000061  -0.000001  -0.000080   0.002967  -0.027644  -0.001251
               7          8          9         10         11         12
     1  C   -0.047451   0.003882   0.004330   0.003104   0.000155   0.366344
     2  C    0.251612  -0.098236  -0.098237  -0.017206   0.001273  -0.017207
     3  C   -0.047450   0.004330   0.003884   0.366345  -0.020964   0.003104
     4  C    0.002234  -0.000024   0.001035  -0.025630   0.378976   0.000023
     5  C   -0.000116  -0.000004  -0.000004   0.001441  -0.034866   0.001441
     6  C    0.002234   0.001035  -0.000024   0.000023   0.002764  -0.025629
     7  N    5.700954   0.327052   0.327053  -0.006107  -0.000052  -0.006108
     8  O    0.327052   8.334677  -0.097186   0.000051   0.000001   0.010242
     9  O    0.327053  -0.097186   8.334670   0.010241  -0.000002   0.000051
    10  H   -0.006107   0.000051   0.010241   0.396383  -0.001456  -0.000087
    11  H   -0.000052   0.000001  -0.000002  -0.001456   0.462782   0.000008
    12  H   -0.006108   0.010242   0.000051  -0.000087   0.000008   0.396379
    13  H   -0.000052  -0.000002   0.000001   0.000008  -0.000109  -0.001456
    14  N   -0.000001   0.000000   0.000000  -0.000061  -0.002373  -0.000061
    15  H   -0.000000  -0.000000   0.000000  -0.000005   0.003437   0.000002
    16  H   -0.000000   0.000000  -0.000000   0.000002  -0.000077  -0.000005
              13         14         15         16
     1  C   -0.020961   0.002947  -0.000080   0.000061
     2  C    0.001273   0.000247  -0.000001  -0.000001
     3  C    0.000155   0.002947   0.000061  -0.000080
     4  C    0.002763  -0.065324  -0.001251   0.002967
     5  C   -0.034867   0.303135  -0.027624  -0.027644
     6  C    0.378972  -0.065324   0.002966  -0.001251
     7  N   -0.000052  -0.000001  -0.000000  -0.000000
     8  O   -0.000002   0.000000  -0.000000   0.000000
     9  O    0.000001   0.000000   0.000000  -0.000000
    10  H    0.000008  -0.000061  -0.000005   0.000002
    11  H   -0.000109  -0.002373   0.003437  -0.000077
    12  H   -0.001456  -0.000061   0.000002  -0.000005
    13  H    0.462781  -0.002373  -0.000077   0.003440
    14  N   -0.002373   7.103718   0.334247   0.334250
    15  H   -0.000077   0.334247   0.311547  -0.016246
    16  H    0.003440   0.334250  -0.016246   0.311573
 Mulliken charges:
               1
     1  C   -0.139980
     2  C    0.111692
     3  C   -0.139978
     4  C   -0.281077
     5  C    0.398890
     6  C   -0.281100
     7  N    0.496198
     8  O   -0.485817
     9  O   -0.485811
    10  H    0.272955
    11  H    0.210504
    12  H    0.272959
    13  H    0.210503
    14  N   -0.945974
    15  H    0.393025
    16  H    0.393011
 Sum of Mulliken charges =  -0.00000
 Mulliken charges with hydrogens summed into heavy atoms:
               1
     1  C    0.132979
     2  C    0.111692
     3  C    0.132977
     4  C   -0.070573
     5  C    0.398890
     6  C   -0.070597
     7  N    0.496198
     8  O   -0.485817
     9  O   -0.485811
    14  N   -0.159937
 Electronic spatial extent (au):  <R**2>=           1533.4522
 Charge=             -0.0000 electrons
 Dipole moment (field-independent basis, Debye):
    X=              7.6626    Y=             -0.0003    Z=              0.5086  Tot=              7.6794
 Quadrupole moment (field-independent basis, Debye-Ang):
   XX=            -57.4993   YY=            -52.1813   ZZ=            -60.0553
   XY=             -0.0014   XZ=              2.1311   YZ=              0.0161
 Traceless Quadrupole moment (field-independent basis, Debye-Ang):
   XX=             -0.9207   YY=              4.3973   ZZ=             -3.4766
   XY=             -0.0014   XZ=              2.1311   YZ=              0.0161
 Octapole moment (field-independent basis, Debye-Ang**2):
  XXX=            102.5897  YYY=             -0.0009  ZZZ=              0.4254  XYY=             16.7042
  XXY=             -0.0035  XXZ=              8.4887  XZZ=            -13.1772  YZZ=              0.0001
  YYZ=              0.3481  XYZ=             -0.0122
 Hexadecapole moment (field-independent basis, Debye-Ang**3):
 XXXX=          -1326.7701 YYYY=           -348.0949 ZZZZ=            -57.8016 XXXY=             -0.0087
 XXXZ=             34.3580 YYYX=             -0.0059 YYYZ=              0.0338 ZZZX=              1.7732
 ZZZY=             -0.0151 XXYY=           -288.5439 XXZZ=           -265.4832 YYZZ=            -79.5135
 XXYZ=              0.0956 YYXZ=              1.5659 ZZXY=              0.0009
 N-N= 4.995629795318D+02 E-N=-2.145410610290D+03  KE= 4.881751507176D+02
 Calling FoFJK, ICntrl=      2127 FMM=F ISym2X=0 I1Cent= 0 IOpClX= 0 NMat=1 NMatS=1 NMatT=0.
 ***** Axes restored to original set *****
 -------------------------------------------------------------------
 Center     Atomic                   Forces (Hartrees/Bohr)
 Number     Number              X              Y              Z
 -------------------------------------------------------------------
      1        6          -0.007655021   -0.000058224   -0.000309388
      2        6           0.013959919    0.000002789    0.000074387
      3        6          -0.007647237    0.000055910   -0.000299666
      4        6           0.003271683   -0.001946855   -0.000684333
      5        6          -0.005506962   -0.000010790    0.001681377
      6        6           0.003267685    0.001946573   -0.000677128
      7        7          -0.034757057    0.000000248    0.000037897
      8        8           0.013692553   -0.031481831    0.000063791
      9        8           0.013691776    0.031479794   -0.000052933
     10        1           0.004336893    0.004354074    0.000059299
     11        1          -0.002566832    0.002358677    0.000245344
     12        1           0.004341354   -0.004353411    0.000049913
     13        1          -0.002565611   -0.002360551    0.000239754
     14        7           0.010840141    0.000032762   -0.000862698
     15        1          -0.003362624    0.011107481    0.000224389
     16        1          -0.003340659   -0.011126647    0.000209994
 -------------------------------------------------------------------
 Cartesian Forces:  Max     0.034757057 RMS     0.009604994

 GradGradGradGradGradGradGradGradGradGradGradGradGradGradGradGradGradGrad
 Berny optimization.
 FormGI is forming the generalized inverse of G from B-inverse, IUseBI=4.
 Internal  Forces:  Max     0.034226667 RMS     0.006318121
 Search for a local minimum.
 Step number   1 out of a maximum of   82
 All quantities printed in internal units (Hartrees-Bohrs-Radians)
 Mixed Optimization -- RFO/linear search
 Second derivative matrix not updated -- first step.
 ITU=  0
     Eigenvalues ---    0.01368   0.01368   0.01923   0.02069   0.02133
     Eigenvalues ---    0.02208   0.02211   0.02251   0.02274   0.02286
     Eigenvalues ---    0.02337   0.02340   0.02659   0.16000   0.16000
     Eigenvalues ---    0.16000   0.16000   0.16000   0.16000   0.22000
     Eigenvalues ---    0.22964   0.23997   0.24985   0.25000   0.25000
     Eigenvalues ---    0.25000   0.36034   0.36034   0.36108   0.36109
     Eigenvalues ---    0.41790   0.41796   0.43009   0.45886   0.45901
     Eigenvalues ---    0.46964   0.46965   0.48368   0.50464   0.53414
     Eigenvalues ---    0.96437   0.96438
 RFO step:  Lambda=-3.91229911D-03 EMin= 1.36827968D-02
 Linear search not attempted -- first point.
 Iteration  1 RMS(Cart)=  0.01415460 RMS(Int)=  0.00023439
 Iteration  2 RMS(Cart)=  0.00021570 RMS(Int)=  0.00006854
 Iteration  3 RMS(Cart)=  0.00000007 RMS(Int)=  0.00006854
 Variable       Old X    -DE/DX   Delta X   Delta X   Delta X     New X
                                 (Linear)    (Quad)   (Total)
    R1        2.63523  -0.00499   0.00000  -0.01099  -0.01100   2.62423
    R2        2.59400   0.00002   0.00000   0.00004   0.00004   2.59404
    R3        2.03913  -0.00597   0.00000  -0.01637  -0.01637   2.02276
    R4        2.63522  -0.00499   0.00000  -0.01099  -0.01100   2.62422
    R5        2.69183   0.00737   0.00000   0.01748   0.01748   2.70931
    R6        2.59401   0.00002   0.00000   0.00003   0.00003   2.59404
    R7        2.03912  -0.00597   0.00000  -0.01636  -0.01636   2.02276
    R8        2.65236  -0.00118   0.00000  -0.00222  -0.00221   2.65015
    R9        2.04028  -0.00333   0.00000  -0.00915  -0.00915   2.03113
   R10        2.65237  -0.00118   0.00000  -0.00222  -0.00221   2.65016
   R11        2.56569   0.00412   0.00000   0.00766   0.00766   2.57335
   R12        2.04028  -0.00333   0.00000  -0.00915  -0.00915   2.03113
   R13        2.30101  -0.03423   0.00000  -0.03535  -0.03535   2.26566
   R14        2.30100  -0.03422   0.00000  -0.03535  -0.03535   2.26566
   R15        1.89758  -0.01122   0.00000  -0.02369  -0.02369   1.87389
   R16        1.89759  -0.01122   0.00000  -0.02370  -0.02370   1.87389
    A1        2.09084   0.00031   0.00000   0.00059   0.00059   2.09144
    A2        2.07581   0.00133   0.00000   0.00875   0.00875   2.08456
    A3        2.11653  -0.00164   0.00000  -0.00934  -0.00934   2.10719
    A4        2.10045   0.00097   0.00000   0.00244   0.00243   2.10288
    A5        2.09136  -0.00048   0.00000  -0.00121  -0.00121   2.09015
    A6        2.09137  -0.00049   0.00000  -0.00123  -0.00122   2.09015
    A7        2.09084   0.00031   0.00000   0.00060   0.00060   2.09144
    A8        2.07585   0.00132   0.00000   0.00872   0.00872   2.08457
    A9        2.11650  -0.00163   0.00000  -0.00932  -0.00932   2.10718
   A10        2.10407  -0.00035   0.00000  -0.00084  -0.00082   2.10326
   A11        2.09896  -0.00087   0.00000  -0.00598  -0.00598   2.09298
   A12        2.08015   0.00122   0.00000   0.00681   0.00680   2.08695
   A13        2.07610  -0.00089   0.00000  -0.00196  -0.00200   2.07409
   A14        2.10333   0.00045   0.00000   0.00128   0.00120   2.10453
   A15        2.10326   0.00046   0.00000   0.00132   0.00124   2.10450
   A16        2.10407  -0.00035   0.00000  -0.00083  -0.00081   2.10325
   A17        2.09895  -0.00087   0.00000  -0.00597  -0.00598   2.09297
   A18        2.08017   0.00122   0.00000   0.00680   0.00679   2.08695
   A19        2.05892   0.00205   0.00000   0.00807   0.00807   2.06699
   A20        2.05892   0.00205   0.00000   0.00807   0.00807   2.06699
   A21        2.16534  -0.00410   0.00000  -0.01613  -0.01613   2.14921
   A22        2.08723   0.00154   0.00000   0.00495   0.00464   2.09186
   A23        2.08692   0.00158   0.00000   0.00523   0.00492   2.09184
   A24        2.05721  -0.00343   0.00000  -0.02559  -0.02593   2.03128
    D1        0.00118  -0.00007   0.00000  -0.00258  -0.00258  -0.00140
    D2       -3.13892  -0.00006   0.00000  -0.00229  -0.00229  -3.14121
    D3        3.14072  -0.00001   0.00000  -0.00048  -0.00047   3.14025
    D4        0.00062  -0.00000   0.00000  -0.00019  -0.00018   0.00044
    D5       -0.00062  -0.00003   0.00000  -0.00101  -0.00101  -0.00164
    D6       -3.14156   0.00003   0.00000   0.00126   0.00125  -3.14031
    D7       -3.14011  -0.00009   0.00000  -0.00318  -0.00317   3.13990
    D8        0.00214  -0.00003   0.00000  -0.00091  -0.00091   0.00123
    D9       -0.00127   0.00007   0.00000   0.00259   0.00259   0.00132
   D10       -3.14068   0.00001   0.00000   0.00039   0.00039  -3.14029
   D11        3.13882   0.00006   0.00000   0.00230   0.00231   3.14113
   D12       -0.00058   0.00000   0.00000   0.00011   0.00010  -0.00048
   D13        0.00159  -0.00002   0.00000  -0.00120  -0.00120   0.00039
   D14       -3.14041  -0.00001   0.00000  -0.00025  -0.00025  -3.14066
   D15       -3.13851  -0.00002   0.00000  -0.00092  -0.00092  -3.13943
   D16        0.00267   0.00000   0.00000   0.00003   0.00003   0.00270
   D17        0.00081   0.00003   0.00000   0.00099   0.00099   0.00180
   D18       -3.14141  -0.00003   0.00000  -0.00133  -0.00132   3.14046
   D19        3.14016   0.00009   0.00000   0.00325   0.00325  -3.13978
   D20       -0.00206   0.00003   0.00000   0.00094   0.00094  -0.00112
   D21       -0.00026  -0.00012   0.00000  -0.00449  -0.00449  -0.00474
   D22        3.10741   0.00042   0.00000   0.01684   0.01683   3.12424
   D23       -3.14123  -0.00006   0.00000  -0.00220  -0.00219   3.13977
   D24       -0.03357   0.00048   0.00000   0.01914   0.01914  -0.01443
   D25        0.00016   0.00012   0.00000   0.00450   0.00450   0.00466
   D26        3.14110   0.00006   0.00000   0.00225   0.00224  -3.13984
   D27       -3.10750  -0.00042   0.00000  -0.01683  -0.01682  -3.12432
   D28        0.03344  -0.00048   0.00000  -0.01908  -0.01908   0.01436
   D29        0.19098   0.00058   0.00000   0.01663   0.01656   0.20754
   D30        2.98523  -0.00110   0.00000  -0.03831  -0.03826   2.94697
   D31       -2.98508   0.00110   0.00000   0.03823   0.03819  -2.94688
   D32       -0.19082  -0.00058   0.00000  -0.01670  -0.01663  -0.20745
         Item               Value     Threshold  Converged?
 Maximum Force            0.034227     0.000450     NO 
 RMS     Force            0.006318     0.000300     NO 
 Maximum Displacement     0.040963     0.001800     NO 
 RMS     Displacement     0.014141     0.001200     NO 
 Predicted change in Energy=-1.977723D-03
 GradGradGradGradGradGradGradGradGradGradGradGradGradGradGradGradGradGrad

                          Input orientation:                          
 ---------------------------------------------------------------------
 Center     Atomic      Atomic             Coordinates (Angstroms)
 Number     Number       Type             X           Y           Z
 ---------------------------------------------------------------------
      1          6           0        0.051303    1.205569    0.001253
      2          6           0       -0.637919   -0.000004   -0.000375
      3          6           0        0.051316   -1.205566   -0.000116
      4          6           0        1.424018   -1.207326    0.003333
      5          6           0        2.137488    0.000008    0.008775
      6          6           0        1.424002    1.207342    0.004801
      7          7           0       -2.071616   -0.000012   -0.004556
      8          8           0       -2.642407    1.054329   -0.006970
      9          8           0       -2.642399   -1.054359   -0.004902
     10          1           0       -0.496864   -2.124939   -0.002604
     11          1           0        1.958917   -2.139602    0.004591
     12          1           0       -0.496895    2.124933   -0.000228
     13          1           0        1.958885    2.139625    0.007263
     14          7           0        3.499041    0.000020    0.032543
     15          1           0        3.995616   -0.842556   -0.131133
     16          1           0        3.995565    0.842840   -0.130041
 ---------------------------------------------------------------------
                    Distance matrix (angstroms):
                    1          2          3          4          5
     1  C    0.000000
     2  C    1.388681   0.000000
     3  C    2.411136   1.388677   0.000000
     4  C    2.776043   2.389398   1.372708   0.000000
     5  C    2.409482   2.775422   2.409482   1.402399   0.000000
     6  C    1.372704   2.389399   2.776044   2.414668   1.402403
     7  N    2.441361   1.433704   2.441356   3.698260   4.209125
     8  O    2.697965   2.264870   3.516151   4.653064   4.894818
     9  O    3.516155   2.264868   2.697960   4.069302   4.894814
    10  H    3.375320   2.129613   1.070399   2.128811   3.384573
    11  H    3.850866   3.364737   2.124002   1.074829   2.147052
    12  H    1.070398   2.129611   3.375316   3.846280   3.384577
    13  H    2.123998   3.364738   3.850868   3.389421   2.147059
    14  N    3.652565   4.137091   3.652576   2.400887   1.361761
    15  H    4.446341   4.711330   3.963136   2.600818   2.045025
    16  H    3.963081   4.711302   4.446341   3.291477   2.045015
                    6          7          8          9         10
     6  C    0.000000
     7  N    3.698261   0.000000
     8  O    4.069304   1.198935   0.000000
     9  O    4.653064   1.198934   2.108690   0.000000
    10  H    3.846281   2.644837   3.835508   2.397805   0.000000
    11  H    3.389420   4.563236   5.601206   4.727574   2.455835
    12  H    2.128812   2.644836   2.397803   3.835506   4.249873
    13  H    1.074829   4.563236   4.727575   5.601206   4.921109
    14  N    2.400872   5.570781   6.231414   6.231405   4.525919
    15  H    3.291468   6.126762   6.904849   6.642593   4.673692
    16  H    2.600766   6.126731   6.642480   6.904896   5.385709
                   11         12         13         14         15
    11  H    0.000000
    12  H    4.921107   0.000000
    13  H    4.279228   2.455836   0.000000
    14  N    2.636426   4.525907   2.636405   0.000000
    15  H    2.418448   5.385702   3.613977   0.991620   0.000000
    16  H    3.614003   4.673629   2.418381   0.991623   1.685396
                   16
    16  H    0.000000
 Stoichiometry    C6H6N2O2
 Framework group  C1[X(C6H6N2O2)]
 Deg. of freedom    42
 Full point group                 C1      NOp   1
 Largest Abelian subgroup         C1      NOp   1
 Largest concise Abelian subgroup C1      NOp   1
                         Standard orientation:                         
 ---------------------------------------------------------------------
 Center     Atomic      Atomic             Coordinates (Angstroms)
 Number     Number       Type             X           Y           Z
 ---------------------------------------------------------------------
      1          6           0       -0.022712   -1.205566   -0.001654
      2          6           0       -0.711946    0.000001   -0.000878
      3          6           0       -0.022722    1.205570   -0.000778
      4          6           0        1.349982    1.207341   -0.003020
      5          6           0        2.063468    0.000013   -0.007589
      6          6           0        1.349989   -1.207327   -0.003996
      7          7           0       -2.145646   -0.000004    0.002043
      8          8           0       -2.716430   -1.054350    0.004170
      9          8           0       -2.716439    1.054338    0.001672
     10          1           0       -0.570912    2.124938    0.001042
     11          1           0        1.884874    2.139621   -0.003999
     12          1           0       -0.570903   -2.124935   -0.000468
     13          1           0        1.884883   -2.139606   -0.005798
     14          7           0        3.425041    0.000009   -0.030161
     15          1           0        3.921464    0.842623    0.133779
     16          1           0        3.921430   -0.842774    0.133031
 ---------------------------------------------------------------------
 Rotational constants (GHZ):           4.0354603           0.8369904           0.6933030
 Standard basis: GTBas1 (6D, 7F)
 There are   162 symmetry adapted cartesian basis functions of A   symmetry.
 There are   162 symmetry adapted basis functions of A   symmetry.
   162 basis functions,   304 primitive gaussians,   162 cartesian basis functions
    36 alpha electrons       36 beta electrons
       nuclear repulsion energy       500.9140946882 Hartrees.
 NAtoms=   16 NActive=   16 NUniq=   16 SFac= 1.00D+00 NAtFMM=   60 NAOKFM=F Big=F
 Integral buffers will be    131072 words long.
 Raffenetti 1 integral format.
 Two-electron integral symmetry is turned on.
 One-electron integrals computed using PRISM.
 NBasis=   162 RedAO= T EigKep=  3.79D-04  NBF=   162
 NBsUse=   162 1.00D-06 EigRej= -1.00D+00 NBFU=   162
 Initial guess from the checkpoint file:  "/home/artemiy/opt/gaussian/scr/Gau-175324.chk"
 B after Tr=    -0.000000    0.000000    0.000000
         Rot=    1.000000    0.000006    0.000003    0.000000 Ang=   0.00 deg.
 ExpMin= 1.61D-01 ExpMax= 5.48D+03 ExpMxC= 8.25D+02 IAcc=2 IRadAn=         4 AccDes= 0.00D+00
 Harris functional with IExCor=  205 and IRadAn=       4 diagonalized for initial guess.
 HarFok:  IExCor=  205 AccDes= 0.00D+00 IRadAn=         4 IDoV= 1 UseB2=F ITyADJ=14
 ICtDFT=  3500011 ScaDFX=  1.000000  1.000000  1.000000  1.000000
 FoFCou: FMM=F IPFlag=           0 FMFlag=      100000 FMFlg1=           0
         NFxFlg=           0 DoJE=T BraDBF=F KetDBF=T FulRan=T
         wScrn=  0.000000 ICntrl=       500 IOpCl=  0 I1Cent=   200000004 NGrid=           0
         NMat0=    1 NMatS0=      1 NMatT0=    0 NMatD0=    1 NMtDS0=    0 NMtDT0=    0
 Petite list used in FoFCou.
 Keep R1 ints in memory in canonical form, NReq=89332567.
 Requested convergence on RMS density matrix=1.00D-08 within 128 cycles.
 Requested convergence on MAX density matrix=1.00D-06.
 Requested convergence on             energy=1.00D-06.
 No special actions if energy rises.
 SCF Done:  E(RHF) =  -489.207119550     A.U. after   12 cycles
            NFock= 12  Conv=0.88D-08     -V/T= 2.0016
 Calling FoFJK, ICntrl=      2127 FMM=F ISym2X=0 I1Cent= 0 IOpClX= 0 NMat=1 NMatS=1 NMatT=0.
 ***** Axes restored to original set *****
 -------------------------------------------------------------------
 Center     Atomic                   Forces (Hartrees/Bohr)
 Number     Number              X              Y              Z
 -------------------------------------------------------------------
      1        6          -0.002867929   -0.001363248    0.000215890
      2        6           0.006843583    0.000001089   -0.000078776
      3        6          -0.002864496    0.001361178    0.000228670
      4        6           0.002222177    0.001028822    0.000189153
      5        6          -0.002807300    0.000004846   -0.001916541
      6        6           0.002221088   -0.001030776    0.000189123
      7        7          -0.013971756    0.000000817    0.000080195
      8        8           0.004942226    0.000198180   -0.000034132
      9        8           0.004941524   -0.000198927   -0.000049087
     10        1          -0.000126648   -0.000961532   -0.000076748
     11        1          -0.000034598   -0.000308682    0.000097320
     12        1          -0.000126107    0.000962291   -0.000075326
     13        1          -0.000034148    0.000307924    0.000096036
     14        7          -0.000049992   -0.000000532    0.003600509
     15        1           0.000856290   -0.001140755   -0.001233406
     16        1           0.000856084    0.001139304   -0.001232879
 -------------------------------------------------------------------
 Cartesian Forces:  Max     0.013971756 RMS     0.002727256

 GradGradGradGradGradGradGradGradGradGradGradGradGradGradGradGradGradGrad
 Berny optimization.
 Using GEDIIS/GDIIS optimizer.
 FormGI is forming the generalized inverse of G from B-inverse, IUseBI=4.
 Internal  Forces:  Max     0.006706795 RMS     0.001279606
 Search for a local minimum.
 Step number   2 out of a maximum of   82
 All quantities printed in internal units (Hartrees-Bohrs-Radians)
 Mixed Optimization -- RFO/linear search
 Update second derivatives using D2CorX and points    1    2
 DE= -2.04D-03 DEPred=-1.98D-03 R= 1.03D+00
 TightC=F SS=  1.41D+00  RLast= 1.07D-01 DXNew= 5.0454D-01 3.2076D-01
 Trust test= 1.03D+00 RLast= 1.07D-01 DXMaxT set to 3.21D-01
 ITU=  1  0
 Use linear search instead of GDIIS.
     Eigenvalues ---    0.01368   0.01368   0.01924   0.02076   0.02150
     Eigenvalues ---    0.02207   0.02211   0.02251   0.02273   0.02285
     Eigenvalues ---    0.02337   0.02340   0.02661   0.15704   0.16000
     Eigenvalues ---    0.16000   0.16000   0.16000   0.16021   0.22000
     Eigenvalues ---    0.22956   0.23980   0.24998   0.25000   0.25000
     Eigenvalues ---    0.26222   0.36034   0.36038   0.36108   0.37009
     Eigenvalues ---    0.39944   0.41835   0.42994   0.45454   0.45887
     Eigenvalues ---    0.46965   0.48363   0.49252   0.51258   0.53145
     Eigenvalues ---    0.92740   0.96437
 RFO step:  Lambda=-4.89066045D-04 EMin= 1.36824675D-02
 Quartic linear search produced a step of  0.02098.
 Iteration  1 RMS(Cart)=  0.00733599 RMS(Int)=  0.00015579
 Iteration  2 RMS(Cart)=  0.00011345 RMS(Int)=  0.00011217
 Iteration  3 RMS(Cart)=  0.00000003 RMS(Int)=  0.00011217
 Variable       Old X    -DE/DX   Delta X   Delta X   Delta X     New X
                                 (Linear)    (Quad)   (Total)
    R1        2.62423  -0.00117  -0.00023  -0.00372  -0.00395   2.62028
    R2        2.59404   0.00161   0.00000   0.00327   0.00327   2.59730
    R3        2.02276   0.00089  -0.00034   0.00085   0.00050   2.02326
    R4        2.62422  -0.00117  -0.00023  -0.00371  -0.00395   2.62027
    R5        2.70931   0.00409   0.00037   0.01175   0.01212   2.72143
    R6        2.59404   0.00161   0.00000   0.00326   0.00326   2.59731
    R7        2.02276   0.00089  -0.00034   0.00085   0.00050   2.02326
    R8        2.65015  -0.00078  -0.00005  -0.00195  -0.00200   2.64815
    R9        2.03113   0.00025  -0.00019  -0.00022  -0.00042   2.03072
   R10        2.65016  -0.00078  -0.00005  -0.00196  -0.00200   2.64816
   R11        2.57335   0.00168   0.00016   0.00400   0.00416   2.57751
   R12        2.03113   0.00025  -0.00019  -0.00022  -0.00042   2.03072
   R13        2.26566  -0.00218  -0.00074  -0.00594  -0.00668   2.25897
   R14        2.26566  -0.00218  -0.00074  -0.00594  -0.00668   2.25897
   R15        1.87389   0.00160  -0.00050   0.00105   0.00056   1.87445
   R16        1.87389   0.00160  -0.00050   0.00105   0.00055   1.87444
    A1        2.09144  -0.00047   0.00001  -0.00208  -0.00206   2.08937
    A2        2.08456   0.00063   0.00018   0.00441   0.00460   2.08916
    A3        2.10719  -0.00015  -0.00020  -0.00234  -0.00253   2.10465
    A4        2.10288   0.00087   0.00005   0.00380   0.00385   2.10674
    A5        2.09015  -0.00044  -0.00003  -0.00190  -0.00193   2.08822
    A6        2.09015  -0.00044  -0.00003  -0.00190  -0.00193   2.08822
    A7        2.09144  -0.00047   0.00001  -0.00207  -0.00206   2.08938
    A8        2.08457   0.00062   0.00018   0.00440   0.00459   2.08916
    A9        2.10718  -0.00015  -0.00020  -0.00233  -0.00253   2.10465
   A10        2.10326  -0.00006  -0.00002  -0.00018  -0.00020   2.10306
   A11        2.09298  -0.00016  -0.00013  -0.00173  -0.00186   2.09112
   A12        2.08695   0.00022   0.00014   0.00191   0.00205   2.08900
   A13        2.07409   0.00019  -0.00004   0.00073   0.00067   2.07476
   A14        2.10453  -0.00010   0.00003  -0.00044  -0.00044   2.10409
   A15        2.10450  -0.00009   0.00003  -0.00041  -0.00041   2.10409
   A16        2.10325  -0.00006  -0.00002  -0.00018  -0.00019   2.10306
   A17        2.09297  -0.00016  -0.00013  -0.00173  -0.00186   2.09112
   A18        2.08695   0.00021   0.00014   0.00190   0.00204   2.08900
   A19        2.06699  -0.00335   0.00017  -0.01284  -0.01268   2.05430
   A20        2.06699  -0.00335   0.00017  -0.01284  -0.01268   2.05431
   A21        2.14921   0.00671  -0.00034   0.02569   0.02534   2.17455
   A22        2.09186  -0.00014   0.00010  -0.00550  -0.00592   2.08595
   A23        2.09184  -0.00014   0.00010  -0.00546  -0.00587   2.08597
   A24        2.03128  -0.00024  -0.00054  -0.00959  -0.01070   2.02058
    D1       -0.00140   0.00007  -0.00005   0.00305   0.00300   0.00160
    D2       -3.14121   0.00005  -0.00005   0.00177   0.00172  -3.13949
    D3        3.14025   0.00003  -0.00001   0.00156   0.00155  -3.14138
    D4        0.00044   0.00001  -0.00000   0.00028   0.00027   0.00071
    D5       -0.00164   0.00002  -0.00002   0.00099   0.00097  -0.00067
    D6       -3.14031   0.00006   0.00003   0.00263   0.00265  -3.13765
    D7        3.13990   0.00006  -0.00007   0.00250   0.00243  -3.14085
    D8        0.00123   0.00010  -0.00002   0.00414   0.00412   0.00535
    D9        0.00132  -0.00007   0.00005  -0.00303  -0.00297  -0.00165
   D10       -3.14029  -0.00003   0.00001  -0.00157  -0.00157   3.14133
   D11        3.14113  -0.00004   0.00005  -0.00174  -0.00169   3.13943
   D12       -0.00048  -0.00001   0.00000  -0.00029  -0.00029  -0.00077
   D13        0.00039   0.00006  -0.00003   0.00393   0.00390   0.00429
   D14       -3.14066  -0.00005  -0.00001  -0.00382  -0.00383   3.13870
   D15       -3.13943   0.00003  -0.00002   0.00265   0.00263  -3.13680
   D16        0.00270  -0.00007   0.00000  -0.00510  -0.00510  -0.00239
   D17        0.00180  -0.00003   0.00002  -0.00104  -0.00103   0.00077
   D18        3.14046  -0.00006  -0.00003  -0.00269  -0.00272   3.13775
   D19       -3.13978  -0.00006   0.00007  -0.00251  -0.00245   3.14096
   D20       -0.00112  -0.00010   0.00002  -0.00416  -0.00414  -0.00525
   D21       -0.00474   0.00011  -0.00009   0.00498   0.00488   0.00014
   D22        3.12424  -0.00017   0.00035  -0.00673  -0.00638   3.11786
   D23        3.13977   0.00015  -0.00005   0.00662   0.00658  -3.13684
   D24       -0.01443  -0.00014   0.00040  -0.00509  -0.00469  -0.01912
   D25        0.00466  -0.00011   0.00009  -0.00495  -0.00486  -0.00020
   D26       -3.13984  -0.00015   0.00005  -0.00659  -0.00654   3.13680
   D27       -3.12432   0.00017  -0.00035   0.00676   0.00641  -3.11791
   D28        0.01436   0.00014  -0.00040   0.00512   0.00472   0.01908
   D29        0.20754   0.00091   0.00035   0.03593   0.03617   0.24371
   D30        2.94697  -0.00063  -0.00080  -0.02408  -0.02478   2.92219
   D31       -2.94688   0.00062   0.00080   0.02402   0.02472  -2.92217
   D32       -0.20745  -0.00091  -0.00035  -0.03599  -0.03623  -0.24369
         Item               Value     Threshold  Converged?
 Maximum Force            0.006707     0.000450     NO 
 RMS     Force            0.001280     0.000300     NO 
 Maximum Displacement     0.027040     0.001800     NO 
 RMS     Displacement     0.007347     0.001200     NO 
 Predicted change in Energy=-2.467623D-04
 GradGradGradGradGradGradGradGradGradGradGradGradGradGradGradGradGradGrad

                          Input orientation:                          
 ---------------------------------------------------------------------
 Center     Atomic      Atomic             Coordinates (Angstroms)
 Number     Number       Type             X           Y           Z
 ---------------------------------------------------------------------
      1          6           0        0.049103    1.205083    0.004133
      2          6           0       -0.636748   -0.000002    0.000435
      3          6           0        0.049129   -1.205074    0.002853
      4          6           0        1.423557   -1.206645    0.007006
      5          6           0        2.136092    0.000022    0.009746
      6          6           0        1.423528    1.206678    0.008353
      7          7           0       -2.076848   -0.000016   -0.006618
      8          8           0       -2.632556    1.058340   -0.013584
      9          8           0       -2.632543   -1.058383   -0.012698
     10          1           0       -0.496733   -2.126133    0.000173
     11          1           0        1.956727   -2.139643    0.012471
     12          1           0       -0.496779    2.126133    0.002381
     13          1           0        1.956680    2.139679    0.014898
     14          7           0        3.499676    0.000018    0.041745
     15          1           0        3.992879   -0.840016   -0.145309
     16          1           0        3.992886    0.840259   -0.144350
 ---------------------------------------------------------------------
                    Distance matrix (angstroms):
                    1          2          3          4          5
     1  C    0.000000
     2  C    1.386591   0.000000
     3  C    2.410157   1.386589   0.000000
     4  C    2.775890   2.387653   1.374435   0.000000
     5  C    2.409922   2.772855   2.409920   1.401342   0.000000
     6  C    1.374433   2.387651   2.775887   2.413324   1.401345
     7  N    2.443777   1.440117   2.443775   3.702564   4.212971
     8  O    2.685729   2.259100   3.509237   4.645712   4.884730
     9  O    3.509243   2.259101   2.685727   4.058857   4.884732
    10  H    3.375641   2.130736   1.070665   2.129089   3.384139
    11  H    3.850492   3.362190   2.124251   1.074609   2.147171
    12  H    1.070665   2.130739   3.375641   3.846443   3.384141
    13  H    2.124250   3.362189   3.850489   3.388535   2.147172
    14  N    3.655141   4.136631   3.655138   2.401565   1.363960
    15  H    4.445013   4.707474   3.963380   2.599814   2.043861
    16  H    3.963403   4.707495   4.445027   3.288491   2.043876
                    6          7          8          9         10
     6  C    0.000000
     7  N    3.702562   0.000000
     8  O    4.058856   1.195398   0.000000
     9  O    4.645714   1.195397   2.116722   0.000000
    10  H    3.846440   2.648997   3.834423   2.387874   0.000000
    11  H    3.388537   4.565972   5.593683   4.714993   2.453528
    12  H    2.129087   2.649001   2.387882   3.834430   4.252267
    13  H    1.074609   4.565972   4.714997   5.593686   4.921037
    14  N    2.401569   5.576734   6.223133   6.223125   4.526978
    15  H    3.288485   6.129146   6.893294   6.630346   4.672460
    16  H    2.599842   6.129168   6.630320   6.893365   5.383033
                   11         12         13         14         15
    11  H    0.000000
    12  H    4.921040   0.000000
    13  H    4.279323   2.453528   0.000000
    14  N    2.638123   4.526983   2.638127   0.000000
    15  H    2.420710   5.383018   3.612528   0.991915   0.000000
    16  H    3.612526   4.672482   2.420741   0.991913   1.680275
                   16
    16  H    0.000000
 Stoichiometry    C6H6N2O2
 Framework group  C1[X(C6H6N2O2)]
 Deg. of freedom    42
 Full point group                 C1      NOp   1
 Largest Abelian subgroup         C1      NOp   1
 Largest concise Abelian subgroup C1      NOp   1
                         Standard orientation:                         
 ---------------------------------------------------------------------
 Center     Atomic      Atomic             Coordinates (Angstroms)
 Number     Number       Type             X           Y           Z
 ---------------------------------------------------------------------
      1          6           0       -0.026049   -1.205080   -0.004233
      2          6           0       -0.711919   -0.000001   -0.002673
      3          6           0       -0.026050    1.205077   -0.003692
      4          6           0        1.348384    1.206662   -0.004300
      5          6           0        2.060936    0.000002   -0.004833
      6          6           0        1.348383   -1.206662   -0.004907
      7          7           0       -2.152032   -0.000002    0.000666
      8          8           0       -2.707746   -1.058361    0.006522
      9          8           0       -2.707752    1.058361    0.004988
     10          1           0       -0.571927    2.126131   -0.002701
     11          1           0        1.881557    2.139664   -0.008675
     12          1           0       -0.571924   -2.126136   -0.003607
     13          1           0        1.881559   -2.139659   -0.009791
     14          7           0        3.424598    0.000011   -0.033314
     15          1           0        3.917309    0.840108    0.154754
     16          1           0        3.917334   -0.840168    0.154310
 ---------------------------------------------------------------------
 Rotational constants (GHZ):           4.0283308           0.8390198           0.6945128
 Standard basis: GTBas1 (6D, 7F)
 There are   162 symmetry adapted cartesian basis functions of A   symmetry.
 There are   162 symmetry adapted basis functions of A   symmetry.
   162 basis functions,   304 primitive gaussians,   162 cartesian basis functions
    36 alpha electrons       36 beta electrons
       nuclear repulsion energy       501.1770049551 Hartrees.
 NAtoms=   16 NActive=   16 NUniq=   16 SFac= 1.00D+00 NAtFMM=   60 NAOKFM=F Big=F
 Integral buffers will be    131072 words long.
 Raffenetti 1 integral format.
 Two-electron integral symmetry is turned on.
 One-electron integrals computed using PRISM.
 NBasis=   162 RedAO= T EigKep=  3.79D-04  NBF=   162
 NBsUse=   162 1.00D-06 EigRej= -1.00D+00 NBFU=   162
 Initial guess from the checkpoint file:  "/home/artemiy/opt/gaussian/scr/Gau-175324.chk"
 B after Tr=     0.000000   -0.000000    0.000000
         Rot=    1.000000   -0.000001    0.000001    0.000000 Ang=  -0.00 deg.
 ExpMin= 1.61D-01 ExpMax= 5.48D+03 ExpMxC= 8.25D+02 IAcc=2 IRadAn=         4 AccDes= 0.00D+00
 Harris functional with IExCor=  205 and IRadAn=       4 diagonalized for initial guess.
 HarFok:  IExCor=  205 AccDes= 0.00D+00 IRadAn=         4 IDoV= 1 UseB2=F ITyADJ=14
 ICtDFT=  3500011 ScaDFX=  1.000000  1.000000  1.000000  1.000000
 FoFCou: FMM=F IPFlag=           0 FMFlag=      100000 FMFlg1=           0
         NFxFlg=           0 DoJE=T BraDBF=F KetDBF=T FulRan=T
         wScrn=  0.000000 ICntrl=       500 IOpCl=  0 I1Cent=   200000004 NGrid=           0
         NMat0=    1 NMatS0=      1 NMatT0=    0 NMatD0=    1 NMtDS0=    0 NMtDT0=    0
 Petite list used in FoFCou.
 Keep R1 ints in memory in canonical form, NReq=89332567.
 Requested convergence on RMS density matrix=1.00D-08 within 128 cycles.
 Requested convergence on MAX density matrix=1.00D-06.
 Requested convergence on             energy=1.00D-06.
 No special actions if energy rises.
 SCF Done:  E(RHF) =  -489.207361494     A.U. after   12 cycles
            NFock= 12  Conv=0.48D-08     -V/T= 2.0016
 Calling FoFJK, ICntrl=      2127 FMM=F ISym2X=0 I1Cent= 0 IOpClX= 0 NMat=1 NMatS=1 NMatT=0.
 ***** Axes restored to original set *****
 -------------------------------------------------------------------
 Center     Atomic                   Forces (Hartrees/Bohr)
 Number     Number              X              Y              Z
 -------------------------------------------------------------------
      1        6          -0.000135518   -0.000256818    0.000026678
      2        6           0.002707870    0.000000570    0.000381793
      3        6          -0.000134663    0.000255683    0.000035870
      4        6           0.000598931    0.000842754   -0.000033358
      5        6          -0.002106012    0.000003207   -0.000833985
      6        6           0.000601208   -0.000843833   -0.000034084
      7        7           0.002704362   -0.000000364   -0.001379936
      8        8          -0.002990916    0.000858737    0.000483758
      9        8          -0.002990799   -0.000858346    0.000475853
     10        1          -0.000231105   -0.000481757    0.000016285
     11        1           0.000257274   -0.000334389   -0.000018030
     12        1          -0.000231292    0.000481804    0.000018771
     13        1           0.000257304    0.000334599   -0.000018738
     14        7           0.000620004   -0.000005234    0.003480488
     15        1           0.000537423   -0.001321554   -0.001300868
     16        1           0.000535930    0.001324942   -0.001300498
 -------------------------------------------------------------------
 Cartesian Forces:  Max     0.003480488 RMS     0.001162388

 GradGradGradGradGradGradGradGradGradGradGradGradGradGradGradGradGradGrad
 Berny optimization.
 Using GEDIIS/GDIIS optimizer.
 FormGI is forming the generalized inverse of G from B-inverse, IUseBI=4.
 Internal  Forces:  Max     0.003382564 RMS     0.000853103
 Search for a local minimum.
 Step number   3 out of a maximum of   82
 All quantities printed in internal units (Hartrees-Bohrs-Radians)
 Mixed Optimization -- En-DIIS/RFO-DIIS
 Update second derivatives using D2CorX and points    1    2    3
 DE= -2.42D-04 DEPred=-2.47D-04 R= 9.80D-01
 TightC=F SS=  1.41D+00  RLast= 7.63D-02 DXNew= 5.3945D-01 2.2897D-01
 Trust test= 9.80D-01 RLast= 7.63D-02 DXMaxT set to 3.21D-01
 ITU=  1  1  0
 Use linear search instead of GDIIS.
     Eigenvalues ---    0.01316   0.01369   0.01869   0.01929   0.02077
     Eigenvalues ---    0.02172   0.02206   0.02211   0.02251   0.02275
     Eigenvalues ---    0.02284   0.02337   0.02347   0.15777   0.16000
     Eigenvalues ---    0.16000   0.16000   0.16000   0.16144   0.22000
     Eigenvalues ---    0.22929   0.23964   0.24992   0.25000   0.25000
     Eigenvalues ---    0.33444   0.36022   0.36034   0.36108   0.36709
     Eigenvalues ---    0.41147   0.42996   0.43617   0.45889   0.46964
     Eigenvalues ---    0.46976   0.48359   0.49557   0.50174   0.53311
     Eigenvalues ---    0.96437   1.05315
 RFO step:  Lambda=-2.83932763D-04 EMin= 1.31587211D-02
 Quartic linear search produced a step of -0.01804.
 Iteration  1 RMS(Cart)=  0.01045699 RMS(Int)=  0.00040993
 Iteration  2 RMS(Cart)=  0.00033760 RMS(Int)=  0.00029493
 Iteration  3 RMS(Cart)=  0.00000020 RMS(Int)=  0.00029493
 Variable       Old X    -DE/DX   Delta X   Delta X   Delta X     New X
                                 (Linear)    (Quad)   (Total)
    R1        2.62028   0.00030   0.00007  -0.00226  -0.00219   2.61809
    R2        2.59730   0.00065  -0.00006   0.00315   0.00309   2.60039
    R3        2.02326   0.00053  -0.00001   0.00073   0.00072   2.02398
    R4        2.62027   0.00030   0.00007  -0.00226  -0.00219   2.61809
    R5        2.72143   0.00328  -0.00022   0.01569   0.01547   2.73690
    R6        2.59731   0.00065  -0.00006   0.00315   0.00309   2.60039
    R7        2.02326   0.00053  -0.00001   0.00073   0.00072   2.02398
    R8        2.64815  -0.00050   0.00004  -0.00246  -0.00242   2.64573
    R9        2.03072   0.00042   0.00001   0.00033   0.00033   2.03105
   R10        2.64816  -0.00051   0.00004  -0.00246  -0.00243   2.64573
   R11        2.57751   0.00171  -0.00007   0.00598   0.00591   2.58342
   R12        2.03072   0.00042   0.00001   0.00033   0.00033   2.03105
   R13        2.25897   0.00215   0.00012  -0.00387  -0.00375   2.25523
   R14        2.25897   0.00215   0.00012  -0.00387  -0.00375   2.25523
   R15        1.87445   0.00163  -0.00001   0.00225   0.00224   1.87669
   R16        1.87444   0.00163  -0.00001   0.00225   0.00224   1.87668
    A1        2.08937  -0.00001   0.00004  -0.00107  -0.00103   2.08834
    A2        2.08916   0.00005  -0.00008   0.00344   0.00335   2.09251
    A3        2.10465  -0.00004   0.00005  -0.00237  -0.00232   2.10233
    A4        2.10674  -0.00032  -0.00007   0.00142   0.00135   2.10809
    A5        2.08822   0.00016   0.00003  -0.00071  -0.00068   2.08755
    A6        2.08822   0.00016   0.00003  -0.00071  -0.00067   2.08755
    A7        2.08938  -0.00001   0.00004  -0.00107  -0.00103   2.08834
    A8        2.08916   0.00005  -0.00008   0.00343   0.00335   2.09251
    A9        2.10465  -0.00004   0.00005  -0.00236  -0.00232   2.10233
   A10        2.10306   0.00014   0.00000   0.00025   0.00025   2.10331
   A11        2.09112  -0.00001   0.00003  -0.00130  -0.00127   2.08985
   A12        2.08900  -0.00013  -0.00004   0.00104   0.00101   2.09001
   A13        2.07476   0.00007  -0.00001   0.00022   0.00020   2.07496
   A14        2.10409  -0.00003   0.00001  -0.00018  -0.00017   2.10391
   A15        2.10409  -0.00004   0.00001  -0.00016  -0.00016   2.10393
   A16        2.10306   0.00014   0.00000   0.00025   0.00025   2.10331
   A17        2.09112  -0.00001   0.00003  -0.00130  -0.00126   2.08986
   A18        2.08900  -0.00013  -0.00004   0.00104   0.00100   2.09000
   A19        2.05430   0.00169   0.00023  -0.00016  -0.00063   2.05367
   A20        2.05431   0.00169   0.00023  -0.00016  -0.00063   2.05367
   A21        2.17455  -0.00338  -0.00046   0.00078  -0.00038   2.17417
   A22        2.08595  -0.00046   0.00011  -0.01183  -0.01288   2.07307
   A23        2.08597  -0.00046   0.00011  -0.01181  -0.01286   2.07311
   A24        2.02058   0.00020   0.00019  -0.01312  -0.01427   2.00631
    D1        0.00160   0.00001  -0.00005   0.00191   0.00185   0.00345
    D2       -3.13949   0.00000  -0.00003   0.00106   0.00103  -3.13846
    D3       -3.14138   0.00001  -0.00003   0.00120   0.00117  -3.14021
    D4        0.00071   0.00001  -0.00000   0.00036   0.00035   0.00106
    D5       -0.00067  -0.00001  -0.00002  -0.00015  -0.00017  -0.00083
    D6       -3.13765  -0.00000  -0.00005   0.00141   0.00136  -3.13629
    D7       -3.14085  -0.00002  -0.00004   0.00056   0.00051  -3.14034
    D8        0.00535  -0.00000  -0.00007   0.00212   0.00204   0.00739
    D9       -0.00165  -0.00001   0.00005  -0.00187  -0.00182  -0.00347
   D10        3.14133  -0.00001   0.00003  -0.00119  -0.00116   3.14017
   D11        3.13943  -0.00000   0.00003  -0.00103  -0.00100   3.13844
   D12       -0.00077  -0.00000   0.00001  -0.00034  -0.00034  -0.00110
   D13        0.00429  -0.00051  -0.00007  -0.03339  -0.03344  -0.02915
   D14        3.13870   0.00051   0.00007   0.03287   0.03292  -3.11156
   D15       -3.13680  -0.00051  -0.00005  -0.03423  -0.03425   3.11213
   D16       -0.00239   0.00050   0.00009   0.03203   0.03211   0.02971
   D17        0.00077   0.00001   0.00002   0.00008   0.00010   0.00087
   D18        3.13775   0.00000   0.00005  -0.00147  -0.00143   3.13632
   D19        3.14096   0.00001   0.00004  -0.00061  -0.00056   3.14040
   D20       -0.00525   0.00000   0.00007  -0.00216  -0.00209  -0.00734
   D21        0.00014  -0.00002  -0.00009   0.00163   0.00154   0.00168
   D22        3.11786  -0.00003   0.00012  -0.00391  -0.00380   3.11406
   D23       -3.13684  -0.00001  -0.00012   0.00319   0.00307  -3.13377
   D24       -0.01912  -0.00002   0.00008  -0.00235  -0.00227  -0.02139
   D25       -0.00020   0.00002   0.00009  -0.00159  -0.00151  -0.00170
   D26        3.13680   0.00001   0.00012  -0.00316  -0.00304   3.13376
   D27       -3.11791   0.00003  -0.00012   0.00394   0.00383  -3.11408
   D28        0.01908   0.00002  -0.00009   0.00238   0.00230   0.02138
   D29        0.24371   0.00084  -0.00065   0.04864   0.04769   0.29140
   D30        2.92219  -0.00083   0.00045  -0.04308  -0.04233   2.87985
   D31       -2.92217   0.00083  -0.00045   0.04302   0.04227  -2.87989
   D32       -0.24369  -0.00084   0.00065  -0.04870  -0.04775  -0.29144
         Item               Value     Threshold  Converged?
 Maximum Force            0.003383     0.000450     NO 
 RMS     Force            0.000853     0.000300     NO 
 Maximum Displacement     0.038136     0.001800     NO 
 RMS     Displacement     0.010460     0.001200     NO 
 Predicted change in Energy=-1.395652D-04
 GradGradGradGradGradGradGradGradGradGradGradGradGradGradGradGradGradGrad

                          Input orientation:                          
 ---------------------------------------------------------------------
 Center     Atomic      Atomic             Coordinates (Angstroms)
 Number     Number       Type             X           Y           Z
 ---------------------------------------------------------------------
      1          6           0        0.049755    1.204540    0.000169
      2          6           0       -0.634662   -0.000000   -0.008618
      3          6           0        0.049792   -1.204527   -0.001006
      4          6           0        1.425805   -1.205610    0.011322
      5          6           0        2.137543    0.000028    0.017270
      6          6           0        1.425767    1.205650    0.012524
      7          7           0       -2.082869   -0.000013   -0.025567
      8          8           0       -2.637343    1.056477   -0.000567
      9          8           0       -2.637322   -1.056525   -0.001000
     10          1           0       -0.493774   -2.127370   -0.006650
     11          1           0        1.958152   -2.139233    0.022158
     12          1           0       -0.493833    2.127375   -0.004610
     13          1           0        1.958092    2.139275    0.024301
     14          7           0        3.503901    0.000014    0.061925
     15          1           0        3.989509   -0.837242   -0.160413
     16          1           0        3.989539    0.837463   -0.159604
 ---------------------------------------------------------------------
                    Distance matrix (angstroms):
                    1          2          3          4          5
     1  C    0.000000
     2  C    1.385432   0.000000
     3  C    2.409067   1.385432   0.000000
     4  C    2.775330   2.387345   1.376068   0.000000
     5  C    2.410394   2.772326   2.410392   1.400060   0.000000
     6  C    1.376068   2.387343   2.775327   2.411259   1.400061
     7  N    2.449428   1.448306   2.449429   3.710204   4.220629
     8  O    2.691174   2.264274   3.511814   4.650414   4.890392
     9  O    3.511809   2.264277   2.691187   4.065880   4.890396
    10  H    3.375959   2.132031   1.071044   2.129495   3.383819
    11  H    3.850101   3.361540   2.125100   1.074786   2.146776
    12  H    1.071044   2.132035   3.375962   3.846304   3.383818
    13  H    2.125102   3.361540   3.850098   3.386997   2.146771
    14  N    3.658663   4.139164   3.658653   2.403034   1.367087
    15  H    4.440306   4.701806   3.960010   2.595721   2.040189
    16  H    3.960072   4.701848   4.440325   3.282696   2.040214
                    6          7          8          9         10
     6  C    0.000000
     7  N    3.710202   0.000000
     8  O    4.065869   1.193414   0.000000
     9  O    4.650410   1.193414   2.113001   0.000000
    10  H    3.846301   2.655415   3.838204   2.396151   0.000000
    11  H    3.387000   4.572569   5.597469   4.721354   2.452124
    12  H    2.129492   2.655420   2.396138   3.838200   4.254746
    13  H    1.074785   4.572571   4.721344   5.597464   4.921063
    14  N    2.403047   5.587455   6.231765   6.231762   4.529003
    15  H    3.282695   6.131306   6.893975   6.632374   4.667751
    16  H    2.595788   6.131351   6.632407   6.894029   5.377149
                   11         12         13         14         15
    11  H    0.000000
    12  H    4.921067   0.000000
    13  H    4.278508   2.452124   0.000000
    14  N    2.639564   4.529014   2.639579   0.000000
    15  H    2.419695   5.377136   3.608383   0.993100   0.000000
    16  H    3.608364   4.667817   2.419775   0.993097   1.674706
                   16
    16  H    0.000000
 Stoichiometry    C6H6N2O2
 Framework group  C1[X(C6H6N2O2)]
 Deg. of freedom    42
 Full point group                 C1      NOp   1
 Largest Abelian subgroup         C1      NOp   1
 Largest concise Abelian subgroup C1      NOp   1
                         Standard orientation:                         
 ---------------------------------------------------------------------
 Center     Atomic      Atomic             Coordinates (Angstroms)
 Number     Number       Type             X           Y           Z
 ---------------------------------------------------------------------
      1          6           0       -0.024984   -1.204534    0.002289
      2          6           0       -0.709441    0.000002    0.008031
      3          6           0       -0.024974    1.204533    0.002450
      4          6           0        1.351074    1.205626   -0.004777
      5          6           0        2.062841   -0.000007   -0.007578
      6          6           0        1.351064   -1.205634   -0.004963
      7          7           0       -2.157701    0.000006    0.019610
      8          8           0       -2.712068   -1.056500   -0.007001
      9          8           0       -2.712069    1.056501   -0.007457
     10          1           0       -0.568567    2.127373    0.005690
     11          1           0        1.883449    2.139250   -0.014032
     12          1           0       -0.568578   -2.127373    0.005441
     13          1           0        1.883437   -2.139258   -0.014374
     14          7           0        3.429355    0.000004   -0.047167
     15          1           0        3.914128    0.837359    0.176618
     16          1           0        3.914176   -0.837347    0.176515
 ---------------------------------------------------------------------
 Rotational constants (GHZ):           4.0342077           0.8365678           0.6930751
 Standard basis: GTBas1 (6D, 7F)
 There are   162 symmetry adapted cartesian basis functions of A   symmetry.
 There are   162 symmetry adapted basis functions of A   symmetry.
   162 basis functions,   304 primitive gaussians,   162 cartesian basis functions
    36 alpha electrons       36 beta electrons
       nuclear repulsion energy       500.8974518777 Hartrees.
 NAtoms=   16 NActive=   16 NUniq=   16 SFac= 1.00D+00 NAtFMM=   60 NAOKFM=F Big=F
 Integral buffers will be    131072 words long.
 Raffenetti 1 integral format.
 Two-electron integral symmetry is turned on.
 One-electron integrals computed using PRISM.
 NBasis=   162 RedAO= T EigKep=  3.79D-04  NBF=   162
 NBsUse=   162 1.00D-06 EigRej= -1.00D+00 NBFU=   162
 Initial guess from the checkpoint file:  "/home/artemiy/opt/gaussian/scr/Gau-175324.chk"
 B after Tr=     0.000000    0.000000   -0.000000
         Rot=    1.000000    0.000000    0.000009    0.000001 Ang=   0.00 deg.
 ExpMin= 1.61D-01 ExpMax= 5.48D+03 ExpMxC= 8.25D+02 IAcc=2 IRadAn=         4 AccDes= 0.00D+00
 Harris functional with IExCor=  205 and IRadAn=       4 diagonalized for initial guess.
 HarFok:  IExCor=  205 AccDes= 0.00D+00 IRadAn=         4 IDoV= 1 UseB2=F ITyADJ=14
 ICtDFT=  3500011 ScaDFX=  1.000000  1.000000  1.000000  1.000000
 FoFCou: FMM=F IPFlag=           0 FMFlag=      100000 FMFlg1=           0
         NFxFlg=           0 DoJE=T BraDBF=F KetDBF=T FulRan=T
         wScrn=  0.000000 ICntrl=       500 IOpCl=  0 I1Cent=   200000004 NGrid=           0
         NMat0=    1 NMatS0=      1 NMatT0=    0 NMatD0=    1 NMtDS0=    0 NMtDT0=    0
 Petite list used in FoFCou.
 Keep R1 ints in memory in canonical form, NReq=89332567.
 Requested convergence on RMS density matrix=1.00D-08 within 128 cycles.
 Requested convergence on MAX density matrix=1.00D-06.
 Requested convergence on             energy=1.00D-06.
 No special actions if energy rises.
 SCF Done:  E(RHF) =  -489.207255592     A.U. after   12 cycles
            NFock= 12  Conv=0.57D-08     -V/T= 2.0016
 Calling FoFJK, ICntrl=      2127 FMM=F ISym2X=0 I1Cent= 0 IOpClX= 0 NMat=1 NMatS=1 NMatT=0.
 ***** Axes restored to original set *****
 -------------------------------------------------------------------
 Center     Atomic                   Forces (Hartrees/Bohr)
 Number     Number              X              Y              Z
 -------------------------------------------------------------------
      1        6           0.001134618    0.000635357   -0.000486816
      2        6          -0.001855138    0.000000460   -0.002804203
      3        6           0.001133836   -0.000634535   -0.000483284
      4        6          -0.000766278    0.000364941    0.000117529
      5        6          -0.001584229    0.000000883   -0.000746365
      6        6          -0.000762941   -0.000365454    0.000116668
      7        7           0.008714303   -0.000002206    0.012109009
      8        8          -0.003703068    0.003882339   -0.004310307
      9        8          -0.003702053   -0.003880609   -0.004314418
     10        1          -0.000402280   -0.000073847   -0.000002796
     11        1           0.000242373   -0.000179709   -0.000019278
     12        1          -0.000402769    0.000073304   -0.000000894
     13        1           0.000241919    0.000180333   -0.000019613
     14        7           0.001448813   -0.000006101    0.003036723
[...]
    16  H    0.200991
 Sum of Mulliken charges =  -0.00000
 Mulliken charges with hydrogens summed into heavy atoms:
               1
     1  C    0.227836
     2  C   -0.153878
     3  C    0.227839
     4  C    0.092904
     5  C   -0.292365
     6  C    0.092902
     7  N    0.019716
     8  O   -0.157713
     9  O   -0.157713
    14  N    0.100471
 Electronic spatial extent (au):  <R**2>=           1565.0904
 Charge=             -0.0000 electrons
 Dipole moment (field-independent basis, Debye):
    X=              7.0013    Y=             -0.0000    Z=              1.0239  Tot=              7.0758
 Quadrupole moment (field-independent basis, Debye-Ang):
   XX=            -62.2688   YY=            -52.7361   ZZ=            -60.9999
   XY=             -0.0000   XZ=              4.6753   YZ=              0.0001
 Traceless Quadrupole moment (field-independent basis, Debye-Ang):
   XX=             -3.6005   YY=              5.9322   ZZ=             -2.3317
   XY=             -0.0000   XZ=              4.6753   YZ=              0.0001
 Octapole moment (field-independent basis, Debye-Ang**2):
  XXX=             87.0691  YYY=             -0.0000  ZZZ=              0.8484  XYY=             15.7249
  XXY=             -0.0000  XXZ=             19.0207  XZZ=            -12.5673  YZZ=             -0.0000
  YYZ=              0.5938  XYZ=             -0.0001
 Hexadecapole moment (field-independent basis, Debye-Ang**3):
 XXXX=          -1481.4955 YYYY=           -358.3377 ZZZZ=            -66.3112 XXXY=             -0.0001
 XXXZ=             80.3771 YYYX=             -0.0000 YYYZ=              0.0001 ZZZX=              3.5197
 ZZZY=             -0.0001 XXYY=           -304.5038 XXZZ=           -276.3505 YYZZ=            -84.0924
 XXYZ=              0.0003 YYXZ=              3.5234 ZZXY=             -0.0000
 N-N= 4.945117333481D+02 E-N=-2.135678432257D+03  KE= 4.884988664274D+02
 1\1\GINC-ARTEMIY-VIRTUALBOX\SP\RMP2\GTMP2large\C6H6N2O2\ARTEMIY\05-Feb
 -2023\0\\#N Geom=AllCheck Guess=TCheck SCRF=Check MP2=FrzG3/GTMP2Large
 \\Title Card Required\\0,1\C,0,0.0477434455,1.2148424539,0.0106441081\
 C,0,-0.6300342229,-0.0000045456,0.0043443827\C,0,0.0477704194,-1.21484
 18853,0.0095026715\C,0,1.4354345793,-1.2074078062,0.0348786916\C,0,2.1
 509044586,0.0000136658,0.0313072657\C,0,1.4354077783,1.2074153615,0.03
 60126528\N,0,-2.090108453,-0.0000062087,-0.0265779542\O,0,-2.669247934
 2,1.099235507,-0.0377330931\O,0,-2.6692240315,-1.0992497377,-0.0387465
 561\H,0,-0.5102829693,-2.1442460165,0.0033055848\H,0,1.9759695694,-2.1
 514653567,0.0444341123\H,0,-0.5103305997,2.1442395947,0.0053196046\H,0
 ,1.9759218173,2.1514755063,0.0464553735\N,0,3.5402669894,-0.0000138672
 ,0.122958383\H,0,3.9889398357,-0.8365825496,-0.2326267256\H,0,3.988921
 3469,0.8368973901,-0.2318430702\\Version=ES64L-G16RevA.03\State=1-A\HF
 =-489.3664404\MP2=-491.1909628\RMSD=3.487e-09\PG=C01 [X(C6H6N2O2)]\\@


 THERE IS MUCH PLEASURE TO BE GAINED FROM USELESS KNOWLEDGE

                                       -- BERTRAND RUSSELL
 Diagonal vibrational polarizability:
        0.0000000       0.0000000       0.0000000
 
 Temperature=              298.150000 Pressure=                      1.000000
 E(ZPE)=                     0.115675 E(Thermal)=                    0.124120
 E(QCISD(T))=             -490.757194 E(Empiric)=                   -0.241254
 DE(MP2)=                   -0.527635
 G3MP2(0 K)=              -491.410409 G3MP2 Energy=               -491.401963
 G3MP2 Enthalpy=          -491.401019 G3MP2 Free Energy=          -491.443920
 1\1\GINC-ARTEMIY-VIRTUALBOX\Mixed\G3MP2\G3MP2\C6H6N2O2\ARTEMIY\05-Feb-
 2023\0\\# g3mp2 geom=gic\\Title Card Required\\0,1\C,0,0.0477434455,1.
 2148424539,0.0106441081\C,0,-0.6300342229,-0.0000045456,0.0043443827\C
 ,0,0.0477704194,-1.2148418853,0.0095026715\C,0,1.4354345793,-1.2074078
 062,0.0348786916\C,0,2.1509044586,0.0000136658,0.0313072657\C,0,1.4354
 077783,1.2074153615,0.0360126528\N,0,-2.090108453,-0.0000062087,-0.026
 5779542\O,0,-2.6692479342,1.099235507,-0.0377330931\O,0,-2.6692240315,
 -1.0992497377,-0.0387465561\H,0,-0.5102829693,-2.1442460165,0.00330558
 48\H,0,1.9759695694,-2.1514653567,0.0444341123\H,0,-0.5103305997,2.144
 2395947,0.0053196046\H,0,1.9759218173,2.1514755063,0.0464553735\N,0,3.
 5402669894,-0.0000138672,0.122958383\H,0,3.9889398357,-0.8365825496,-0
 .2326267256\H,0,3.9889213469,0.8368973901,-0.2318430702\\Version=ES64L
 -G16RevA.03\State=1-A\MP2/G3Bas1=-490.6633274\QCISD(T)/G3Bas1=-490.757
 1937\MP2/GTMP2Large=-491.1909628\G3MP2=-491.4104086\FreqCoord=0.097815
 4557,2.278322555,0.017969222,-1.1939726057,-0.0000031543,-0.0008522076
 ,0.0978677495,-2.2783155298,0.0159441922,2.6979424428,-2.277522529,0.0
 471456081,4.0394393828,0.0000283009,0.0628532962,2.6978911475,2.277561
 3531,0.0491298403,-3.9251473684,-0.0000173365,-0.0407240416,-4.9820624
 68,1.9979989777,-0.0554310513,-4.9819947979,-1.9980441548,-0.058591256
 5,-0.9347159415,-4.01960798,0.0024023644,3.7075360414,-4.0405037872,0.
 0715611703,-0.9348081111,4.019602867,0.0060015154,3.7074446942,4.04054
 38963,0.0750548175,6.6379058129,0.0000093899,0.1761578451,7.5079789283
 ,-1.5689194253,-0.3912998041,7.5079461999,1.5694363439,-0.3899707398\P
 G=C01 [X(C6H6N2O2)]\NImag=0\\0.80480913,-0.05490832,0.83086289,0.00839
 251,-0.00009514,0.17549934,-0.17767170,-0.12459997,-0.00146474,0.68715
 973,-0.02824384,-0.32140468,-0.00090608,-0.00000516,0.84334917,-0.0015
 6117,-0.00179374,-0.07250255,0.00745423,0.00033359,0.14765240,0.090146
 44,0.04010647,0.00086946,-0.17767483,0.02824824,-0.00154231,0.80480696
 ,-0.04010354,-0.07177167,-0.00032391,0.12460430,-0.32140291,0.00157132
 ,0.05490055,0.83086416,0.00083627,0.00025337,0.00856543,-0.00136573,0.
 00068595,-0.07250064,0.00845527,0.00067553,0.17550042,-0.07486733,-0.0
 5035674,-0.00071910,-0.04096842,0.10830530,-0.00059030,-0.39946682,-0.
 04907194,-0.00428681,0.81157194,-0.03490494,-0.02740977,-0.00031853,0.
 01681763,0.05386047,0.00019346,0.05637084,-0.16630979,0.00028949,-0.05
 757626,0.78972222,-0.00002762,-0.00018197,-0.00432118,-0.00045816,0.00
 016726,0.00865958,-0.00561017,-0.00012071,-0.07067915,0.01015690,-0.00
 184743,0.14630190,-0.04043832,0.03592282,0.00016252,0.02332072,0.00000
 150,0.00037358,-0.04043471,-0.03592552,0.00013303,-0.18325616,-0.10589
 075,0.00040552,0.81178193,0.11986693,0.06948787,0.00088654,0.00000046,
 -0.11919333,-0.00005103,-0.11986790,0.06948577,-0.00082490,-0.00765658
 ,-0.30163148,-0.00053682,0.00000290,0.77077042,-0.00178657,0.00086100,
 0.00052283,0.00278071,-0.00004912,-0.00642677,-0.00189176,-0.00080099,
 0.00052153,0.00040497,0.00138027,-0.08111646,-0.00617549,0.00024612,0.
 20147284,-0.39946612,0.04907033,-0.00423441,-0.04096556,-0.10830686,-0
 .00068714,-0.07486927,0.05035629,-0.00067506,0.08988606,0.02842807,0.0
 0036967,-0.18325867,0.00765910,0.00041101,0.81156895,-0.05637125,-0.16
 630981,-0.00037469,-0.01681940,0.05385795,-0.00015113,0.03490390,-0.02
 740827,0.00029982,-0.02842523,-0.05068455,-0.00003153,0.10589313,-0.30
 162839,-0.00157132,0.05756782,0.78972171,-0.00565378,0.00003854,-0.070
 67923,-0.00047406,-0.00012952,0.00865930,0.00000417,0.00016113,-0.0043
 2074,0.00034364,-0.00002169,0.00950468,0.00049803,0.00034692,-0.081117
 36,0.01019879,0.00240345,0.14630531,-0.04520599,-0.02205236,-0.0005669
 0,-0.19078852,0.00000017,-0.00138669,-0.04520726,0.02205123,-0.0005408
 2,0.01632194,0.01394258,-0.00012469,-0.02120563,0.00000069,-0.00197388
 ,0.01632248,-0.01394187,-0.00013738,0.88722922,-0.03383937,0.02094064,
 -0.00045804,0.00000023,-0.15207782,-0.00002710,0.03383833,0.02094122,0
 .00048360,0.00593012,-0.01006883,-0.00001405,-0.00000006,-0.00476668,-
 0.00000101,-0.00592965,-0.01006911,-0.00000439,-0.00001315,1.23490578,
 -0.00057804,-0.00030143,-0.00657044,-0.00154480,-0.00002686,-0.0932329
 8,-0.00055395,0.00033159,-0.00656976,0.00016971,0.00018854,0.00893704,
 -0.00026427,-0.00000278,-0.00163218,0.00016060,-0.00020612,0.00893686,
 0.00883206,0.00071549,0.30226062,-0.00234907,0.00323233,-0.00004530,-0
 .04102001,0.05895215,-0.00091440,-0.00215779,-0.00950885,-0.00011628,-
 0.00625473,-0.00121242,0.00003200,0.00588488,0.00298799,0.00049089,-0.
 00168915,0.00307583,0.00002334,-0.31967539,0.22940119,-0.00313252,0.31
 079083,-0.00876655,-0.01149489,-0.00013733,0.03612439,-0.00630153,0.00
 051480,-0.00274316,0.00278434,-0.00003058,0.00334491,0.00414353,0.0000
 1123,-0.00505503,-0.00120091,-0.00041601,0.00357886,0.00102167,-0.0000
 2789,0.24957633,-0.54505255,0.00349401,-0.28258500,0.71635595,-0.00005
 497,0.00004525,0.00186873,-0.00090677,0.00084601,0.02405844,-0.0000924
 3,-0.00013401,0.00458504,-0.00007822,-0.00001476,-0.00119731,0.0000569
 9,0.00004551,0.00029372,-0.00002964,0.00004574,-0.00064477,-0.00312370
 ,0.00311324,-0.10220302,0.00387678,-0.00375299,0.03791910,-0.00215797,
 0.00950883,-0.00011029,-0.04101697,-0.05895178,-0.00100393,-0.00234926
 ,-0.00323201,-0.00005269,-0.00168894,-0.00307589,0.00002156,0.00588478
 ,-0.00298827,0.00048867,-0.00625472,0.00121217,0.00003513,-0.31965879,
 -0.22938783,-0.00349443,0.06809271,0.00453980,0.00050468,0.31077134,0.
 00274315,0.00278449,0.00002868,-0.03612404,-0.00630251,-0.00056503,0.0
 0876680,-0.01149483,0.00012578,-0.00357890,0.00102154,0.00003021,0.005
 05513,-0.00120117,0.00041438,-0.00334511,0.00414348,-0.00000459,-0.249
 56295,-0.54505623,-0.00418822,-0.00453259,-0.16746805,-0.00019298,0.28
 256423,0.71636051,-0.00009306,0.00013375,0.00458509,-0.00095997,-0.000
 89557,0.02405631,-0.00004316,-0.00006041,0.00186881,-0.00003536,-0.000
 04518,-0.00064475,0.00006288,-0.00004615,0.00029412,-0.00008119,0.0000
 1938,-0.00119725,-0.00352145,-0.00380818,-0.10221463,0.00049880,-0.000
 12829,0.03561256,0.00432855,0.00482058,0.03793282,-0.00228424,0.004144
 54,-0.00010085,0.01680691,0.01411334,0.00011504,-0.15276356,-0.1408203
 1,-0.00128393,-0.00889872,-0.03070040,-0.00023692,-0.00625577,0.001048
 10,-0.00029128,-0.00087212,0.00069128,0.00000124,0.00099055,0.00127331
 ,0.00008775,0.00072097,-0.00182385,0.00000212,-0.00558857,0.00071153,-
 0.00008147,0.15665317,0.00452531,-0.00374802,0.00006178,-0.01811474,-0
 .01941594,-0.00022808,-0.13793557,-0.31451206,-0.00185705,0.00259875,0
 .00843293,0.00005142,0.00197067,0.00102716,0.00008827,0.00054516,0.000
 52711,-0.00000745,-0.00302536,-0.00502077,-0.00004891,-0.00004427,0.00
 193306,-0.00000057,-0.00074192,0.00458129,-0.00000739,0.15164604,0.325
 91551,-0.00009737,0.00007938,0.00558558,0.00008527,0.00017587,0.007825
 73,-0.00136540,-0.00188213,-0.05241494,-0.00004864,-0.00027008,0.00709
 959,-0.00025624,-0.00009415,0.00989239,-0.00004512,0.00006043,-0.00075
 356,0.00010907,0.00001917,-0.00505967,0.00000457,-0.00002523,0.0004358
 5,-0.00008250,0.00000510,-0.00001697,0.00157855,0.00201858,0.03400244,
 -0.00128427,-0.00090772,-0.00002918,-0.00539584,-0.00209903,-0.0001682
 2,-0.01246681,0.03411335,-0.00043922,-0.14644355,0.13095309,-0.0018229
 5,0.01277180,-0.01722179,0.00010246,-0.00153357,-0.00371814,-0.0001548
 7,0.00035987,0.00232580,0.00000169,-0.00109310,0.00019992,-0.00001200,
 -0.00027881,-0.00038786,-0.00000575,0.00129917,-0.00041054,0.00012554,
 0.15121151,-0.00143936,-0.00012696,-0.00002702,-0.00069243,0.00195204,
 0.00009406,-0.00232013,0.00599354,-0.00001384,0.13047413,-0.30434275,0
 .00321821,0.02026433,-0.02133024,0.00040805,-0.00427347,-0.00371156,-0
 .00005578,-0.00074129,0.00024838,-0.00000115,0.00010659,-0.00006250,-0
 .00000512,0.00030194,0.00011527,0.00000500,0.00042232,0.00090703,-0.00
 005084,-0.14197848,0.31935215,0.00002980,0.00003271,-0.00041684,-0.000
 07427,-0.00000864,0.00816359,-0.00005584,0.00025866,0.00303863,-0.0023
 5684,0.00382795,-0.04022709,-0.00010491,-0.00055261,0.00445452,-0.0001
 2969,-0.00006284,0.00600432,-0.00004425,0.00001642,0.00153378,0.000016
 37,-0.00001479,-0.00062113,0.00000665,-0.00000499,-0.00008089,0.000077
 78,-0.00001084,-0.00565784,0.00213855,-0.00379023,0.02817959,-0.152769
 92,0.14082511,-0.00115978,0.01680686,-0.01411260,0.00010321,-0.0022840
 5,-0.00414442,-0.00010483,-0.00087210,-0.00069132,0.00000070,-0.006255
 73,-0.00104800,-0.00029158,-0.00889935,0.03070019,-0.00020897,0.000990
 51,-0.00127326,0.00008470,-0.00558860,-0.00071169,-0.00008067,0.000720
 92,0.00182386,0.00000520,0.00082836,-0.00097134,0.00000570,0.00003810,
 0.00004432,0.00001107,0.15666007,0.13794045,-0.31450885,0.00162141,0.0
 1811550,-0.01941588,0.00020345,-0.00452518,-0.00374808,-0.00007041,-0.
 00054515,0.00052713,0.00000863,-0.00197060,0.00102709,-0.00009630,-0.0
 0259910,0.00843337,-0.00005045,0.00302545,-0.00502075,0.00004575,0.000
 74174,0.00458128,0.00001239,0.00004422,0.00193308,0.00000314,0.0009713
 7,-0.00095810,0.00001479,0.00007445,0.00000591,-0.00000189,-0.15165130
 ,0.32591199,-0.00124063,0.00164601,-0.05241179,0.00009775,-0.00020097,
 0.00782571,-0.00010096,-0.00008733,0.00558545,-0.00004528,-0.00005911,
 -0.00075359,-0.00025778,0.00008621,0.00989239,-0.00005140,0.00027156,0
 .00709978,0.00011391,-0.00001795,-0.00505965,-0.00007961,-0.00000071,-
 0.00001691,0.00000312,0.00002380,0.00043588,0.00000629,-0.00001594,0.0
 0049365,0.00001636,0.00000087,-0.00065457,0.00144233,-0.00175454,0.033
 99903,-0.01246611,-0.03411336,-0.00046869,-0.00539591,0.00209900,-0.00
 016546,-0.00128432,0.00090772,-0.00002851,-0.00153376,0.00371832,-0.00
 015148,0.01277191,0.01722249,0.00011724,-0.14643766,-0.13094797,-0.001
 93479,0.00035990,-0.00232580,-0.00000060,-0.00027882,0.00038785,-0.000
 00529,-0.00109309,-0.00019993,-0.00001253,0.00003810,-0.00007447,0.000
 01630,0.00070958,0.00086610,-0.00000421,0.00129918,0.00041044,0.000125
 76,0.15120510,0.00231976,0.00599303,0.00001634,0.00069233,0.00195218,-
 0.00009951,0.00143930,-0.00012689,0.00002726,0.00427363,-0.00371146,0.
 00004737,-0.02026346,-0.02133039,-0.00043021,-0.13046855,-0.30434255,-
 0.00344472,0.00074132,0.00024835,0.00000005,-0.00030196,0.00011527,-0.
 00000473,-0.00010663,-0.00006253,0.00000559,-0.00004433,0.00000591,-0.
 00000030,-0.00086606,-0.00116420,-0.00000786,-0.00042237,0.00090697,0.
 00005652,0.14197285,0.31935196,-0.00005358,-0.00025569,0.00303840,-0.0
 0007401,0.00000311,0.00816351,0.00003111,-0.00003277,-0.00041684,-0.00
 012611,0.00005415,0.00600443,-0.00012226,0.00052999,0.00445464,-0.0024
 6830,-0.00405422,-0.04023329,-0.00004322,-0.00001750,0.00153376,0.0000
 0657,0.00000526,-0.00008088,0.00001661,0.00001534,-0.00062110,0.000011
 04,0.00000249,-0.00065457,-0.00000496,0.00000698,-0.00014382,0.0000770
 2,0.00001677,-0.00565778,0.00225964,0.00404009,0.02818628,0.01674200,0
 .00205521,0.00053377,-0.02447236,-0.00000035,-0.00017403,0.01674179,-0
 .00205497,0.00053013,-0.04987731,-0.02156764,-0.00199953,-0.35687574,0
 .00000555,-0.01880409,-0.04987918,0.02156824,-0.00198096,0.02027334,0.
 00000015,0.00017657,-0.00581849,0.00419171,-0.00006195,-0.00581839,-0.
 00419180,-0.00006691,-0.00025384,-0.00006352,-0.00011586,0.00220310,0.
 00085443,-0.00014502,-0.00025388,0.00006361,-0.00011590,0.00220310,-0.
 00085430,-0.00014600,0.76480589,-0.00864849,-0.01320970,0.00099843,0.0
 0000299,0.01056255,0.00000505,0.00864454,-0.01320897,-0.00101548,-0.05
 641341,0.00364376,-0.00189023,-0.00001857,-0.15115830,-0.00004207,0.05
 641738,0.00363787,0.00188376,-0.00000251,-0.00028379,-0.00000014,-0.00
 036224,0.00078364,-0.00001776,0.00036357,0.00078466,0.00001866,-0.0016
 1241,0.00032178,0.00003270,-0.00006899,0.00234457,0.00078880,0.0016122
 1,0.00032179,-0.00003190,0.00006893,0.00234495,-0.00078375,0.00007468,
 0.92172206,0.00554343,-0.00041909,0.00618106,-0.00800782,0.00000501,-0
 .00066359,0.00555111,0.00040221,0.00617999,-0.00603260,-0.00721675,0.0
 1088543,0.03882934,-0.00004115,-0.05257616,-0.00598353,0.00720998,0.01
 089322,0.00650956,0.00000005,-0.00051967,-0.00178279,0.00135655,0.0000
 2617,-0.00178251,-0.00135585,0.00002462,0.00020484,-0.00007104,-0.0005
 5327,0.00001779,-0.00032499,-0.00354557,0.00020612,0.00007180,-0.00055
 325,0.00001783,0.00033005,-0.00354601,-0.17975549,0.00033048,0.1381341
 6,0.00021928,0.00246223,-0.00039358,0.00063797,-0.00086255,0.00007342,
 -0.00095583,0.00038999,-0.00066507,0.00302137,0.00187713,-0.00088268,-
 0.01721809,0.04052033,0.01322656,-0.00667342,-0.00351239,0.00032481,-0
 .00055312,0.00007130,0.00002786,0.00027226,-0.00028123,0.00000081,0.00
 016350,-0.00002275,0.00000423,0.00003712,-0.00002275,0.00007912,-0.000
 28955,-0.00171075,0.00054799,-0.00045750,-0.00011856,0.00000690,0.0001
 9237,0.00017818,0.00008696,-0.16486330,0.15232905,0.07329795,0.1727814
 5,0.00116697,0.00040404,-0.00014594,-0.00183330,-0.00001025,-0.0000151
 9,0.00133757,-0.00048931,0.00082654,-0.00397252,0.00089661,0.00035793,
 0.00214953,0.00581763,0.00223456,-0.00267117,0.00191305,-0.00073098,0.
 00153898,0.00006616,-0.00017718,-0.00037853,0.00024627,0.00003582,-0.0
 0042854,-0.00038499,0.00002061,-0.00006257,-0.00001196,-0.00003281,-0.
 00008661,-0.00046725,-0.00053567,-0.00004195,0.00001505,0.00005076,-0.
 00007857,0.00028669,-0.00006508,0.15713324,-0.38419361,-0.10932677,-0.
 17253950,0.39705861,-0.00282394,-0.00007850,0.00179049,0.00245530,0.00
 086640,0.00013137,-0.00083000,-0.00003535,-0.00073407,0.00196399,0.001
 35887,-0.00101202,-0.01666937,0.00742964,-0.00446088,0.00127783,-0.002
 50124,0.00255618,-0.00205005,0.00005108,-0.00007008,0.00052301,-0.0004
 1053,-0.00001367,0.00059807,0.00043704,-0.00002139,0.00002405,0.000005
 54,0.00010072,0.00027692,0.00045399,0.00056250,-0.00011434,-0.00001889
 ,-0.00032509,-0.00004222,-0.00008107,-0.00058931,0.10113037,-0.1425015
 1,-0.05529033,-0.07565365,0.12127370,0.05577774,-0.00095580,-0.0003894
 0,-0.00066546,0.00063792,0.00086247,0.00007418,0.00021933,-0.00246186,
 -0.00039576,-0.00667346,0.00351195,0.00032786,-0.01721721,-0.04053199,
 0.01319213,0.00302131,-0.00187630,-0.00088432,-0.00055310,-0.00007132,
 0.00002766,0.00016349,0.00002274,0.00000426,0.00027226,0.00028123,0.00
 000118,-0.00045750,0.00011855,0.00000701,0.00019238,-0.00017826,0.0000
 8681,0.00003713,0.00002268,0.00007915,-0.00028959,0.00171026,0.0005494
 8,-0.16485672,-0.15238673,0.07316677,0.01368549,0.01876698,-0.01006598
 ,0.17277407,-0.00133691,-0.00048862,-0.00082650,0.00183123,-0.00000952
 ,0.00001508,-0.00116460,0.00040377,0.00014492,0.00266990,0.00191044,0.
 00073047,-0.00213602,0.00582494,-0.00222561,0.00397089,0.00089803,-0.0
 0035634,-0.00153728,0.00006600,0.00017737,0.00042805,-0.00038459,-0.00
 002105,0.00037812,0.00024600,-0.00003555,0.00004205,0.00001509,-0.0000
 5048,0.00007860,0.00028657,0.00006582,0.00006256,-0.00001199,0.0000327
 1,0.00008639,-0.00046728,0.00053483,-0.15721423,-0.38441325,0.10904951
 ,-0.01875773,-0.02114676,0.01375083,0.17259900,0.39727116,-0.00083128,
 0.00003554,-0.00073491,0.00245708,-0.00086643,0.00013059,-0.00282512,0
 .00007717,0.00179086,0.00128006,0.00250080,0.00255891,-0.01667158,-0.0
 0742134,-0.00446917,0.00196755,-0.00135728,-0.00101345,-0.00205156,-0.
 00005084,-0.00006998,0.00059855,-0.00043751,-0.00002191,0.00052330,0.0
 0041074,-0.00001323,-0.00011426,0.00001919,-0.00032512,-0.00004215,0.0
 0008182,-0.00058919,0.00002412,-0.00000564,0.00010075,0.00027701,-0.00
 045488,0.00056258,0.10099489,0.14222495,-0.05507680,-0.01008163,-0.013
 77032,0.00159784,-0.07550496,-0.12098599,0.05557224\\-0.00000493,0.000
 03441,-0.00000737,0.00003539,0.00000015,-0.00001204,-0.00000474,-0.000
 03452,-0.00000462,0.00000902,0.00000901,-0.00000111,-0.00010023,-0.000
 00008,0.00001015,0.00000935,-0.00000908,-0.00000085,-0.00002101,0.0000
 0007,0.00006179,-0.00000448,-0.00005700,-0.00002075,-0.00000444,0.0000
 5691,-0.00002373,0.00000623,0.00002269,0.00000095,0.00000231,0.0000056
 2,-0.00000090,0.00000626,-0.00002271,0.00000134,0.00000227,-0.00000561
 ,-0.00000129,0.00007894,0.00000029,-0.00000908,-0.00000500,0.00001746,
 0.00000389,-0.00000493,-0.00001761,0.00000362\\\@
 Job cpu time:       0 days  0 hours 32 minutes 23.3 seconds.
 Elapsed time:       0 days  0 hours  8 minutes  7.7 seconds.
 File lengths (MBytes):  RWF=   6732 Int=      0 D2E=      0 Chk=     22 Scr=      1
 Normal termination of Gaussian 16 at Sun Feb  5 13:13:50 2023.
