 Entering Gaussian System, Link 0=/home/artemiy/opt/gaussian/g16/g16
 Input=4-nitrophenol_G3MP2.gjf
 Output=4-nitrophenol_G3MP2.log
 Initial command:
 /home/artemiy/opt/gaussian/g16/l1.exe "/home/artemiy/opt/gaussian/scr/Gau-46390.inp" -scrdir="/home/artemiy/opt/gaussian/scr/"
 Entering Link 1 = /home/artemiy/opt/gaussian/g16/l1.exe PID=     46393.
  
 Copyright (c) 1988,1990,1992,1993,1995,1998,2003,2009,2016,
            Gaussian, Inc.  All Rights Reserved.
  
 This is part of the Gaussian(R) 16 program.  It is based on
 the Gaussian(R) 09 system (copyright 2009, Gaussian, Inc.),
 the Gaussian(R) 03 system (copyright 2003, Gaussian, Inc.),
 the Gaussian(R) 98 system (copyright 1998, Gaussian, Inc.),
 the Gaussian(R) 94 system (copyright 1995, Gaussian, Inc.),
 the Gaussian 92(TM) system (copyright 1992, Gaussian, Inc.),
 the Gaussian 90(TM) system (copyright 1990, Gaussian, Inc.),
 the Gaussian 88(TM) system (copyright 1988, Gaussian, Inc.),
 the Gaussian 86(TM) system (copyright 1986, Carnegie Mellon
 University), and the Gaussian 82(TM) system (copyright 1983,
 Carnegie Mellon University). Gaussian is a federally registered
 trademark of Gaussian, Inc.
  
 This software contains proprietary and confidential information,
 including trade secrets, belonging to Gaussian, Inc.
  
 This software is provided under written license and may be
 used, copied, transmitted, or stored only in accord with that
 written license.
  
 The following legend is applicable only to US Government
 contracts under FAR:
  
                    RESTRICTED RIGHTS LEGEND
  
 Use, reproduction and disclosure by the US Government is
 subject to restrictions as set forth in subparagraphs (a)
 and (c) of the Commercial Computer Software - Restricted
 Rights clause in FAR 52.227-19.
  
 Gaussian, Inc.
 340 Quinnipiac St., Bldg. 40, Wallingford CT 06492
  
  
 ---------------------------------------------------------------
 Warning -- This program may not be used in any manner that
 competes with the business of Gaussian, Inc. or will provide
 assistance to any competitor of Gaussian, Inc.  The licensee
 of this program is prohibited from giving any competitor of
 Gaussian, Inc. access to this program.  By using this program,
 the user acknowledges that Gaussian, Inc. is engaged in the
 business of creating and licensing software in the field of
 computational chemistry and represents and warrants to the
 licensee that it is not a competitor of Gaussian, Inc. and that
 it will not use this program in any manner prohibited above.
 ---------------------------------------------------------------
  

 Cite this work as:
 Gaussian 16, Revision A.03,
 M. J. Frisch, G. W. Trucks, H. B. Schlegel, G. E. Scuseria, 
 M. A. Robb, J. R. Cheeseman, G. Scalmani, V. Barone, 
 G. A. Petersson, H. Nakatsuji, X. Li, M. Caricato, A. V. Marenich, 
 J. Bloino, B. G. Janesko, R. Gomperts, B. Mennucci, H. P. Hratchian, 
 J. V. Ortiz, A. F. Izmaylov, J. L. Sonnenberg, D. Williams-Young, 
 F. Ding, F. Lipparini, F. Egidi, J. Goings, B. Peng, A. Petrone, 
 T. Henderson, D. Ranasinghe, V. G. Zakrzewski, J. Gao, N. Rega, 
 G. Zheng, W. Liang, M. Hada, M. Ehara, K. Toyota, R. Fukuda, 
 J. Hasegawa, M. Ishida, T. Nakajima, Y. Honda, O. Kitao, H. Nakai, 
 T. Vreven, K. Throssell, J. A. Montgomery, Jr., J. E. Peralta, 
 F. Ogliaro, M. J. Bearpark, J. J. Heyd, E. N. Brothers, K. N. Kudin, 
 V. N. Staroverov, T. A. Keith, R. Kobayashi, J. Normand, 
 K. Raghavachari, A. P. Rendell, J. C. Burant, S. S. Iyengar, 
 J. Tomasi, M. Cossi, J. M. Millam, M. Klene, C. Adamo, R. Cammi, 
 J. W. Ochterski, R. L. Martin, K. Morokuma, O. Farkas, 
 J. B. Foresman, and D. J. Fox, Gaussian, Inc., Wallingford CT, 2016.
 
 ******************************************
 Gaussian 16:  ES64L-G16RevA.03 25-Dec-2016
                 4-Feb-2023 
 ******************************************
 %mem=7GB
 %nprocshared=4
 Will use up to    4 processors via shared memory.
 ----------------
 # g3mp2 geom=gic
 ----------------
 1/18=20,19=15,38=1,145=2/1,3;
 2/9=110,12=2,17=6,18=5,40=1/2;
 3/5=33,7=1,11=9,25=1,30=1,71=1/1,2,3;
 4//1;
 5/5=2,38=5/2;
 6/7=2,8=2,9=2,10=2,28=1/1;
 7//1,2,3,16;
 1/18=20,19=15,145=2/3(2);
 2/9=110/2;
 99//99;
 2/9=110/2;
 3/5=33,7=1,11=9,25=1,30=1,71=1/1,2,3;
 4/5=5,16=3,69=1/1;
 5/5=2,38=5/2;
 7//1,2,3,16;
 1/18=20,19=15,145=2/3(-5);
 2/9=110/2;
 6/7=2,8=2,9=2,10=2,19=2,28=1/1;
 99/9=1/99;
 -------------------
 CAS 567-22-1
 -------------------
 Symbolic Z-matrix:
 Charge =  0 Multiplicity = 1
 C                     0.03287  -1.20863   0.00012 
 C                    -0.65434   0.00036   0.00005 
 C                     0.03393   1.21134  -0.00003 
 C                     1.40909   1.21176  -0.00008 
 C                     2.10966   0.0019   -0.00002 
 C                     1.41054  -1.2063    0.00009 
 H                    -0.52549  -2.13204   0.00015 
 H                     1.95418  -2.14091   0.00012 
 N                    -2.08862  -0.00149   0.00001 
 O                    -2.65242  -1.07716  -0.0002 
 O                    -2.65576   1.07184   0.00013 
 H                    -0.52625   2.13351  -0.00011 
 H                     1.97018   2.13183  -0.00017 
 O                     3.45484   0.052    -0.00003 
 H                     3.83258  -0.83708  -0.00008 
 
 Initializing the GIC definitions file.

 GradGradGradGradGradGradGradGradGradGradGradGradGradGradGradGradGradGrad
 Berny optimization.
 Initialization pass.
                           ----------------------------
                           !    Initial Parameters    !
                           ! (Angstroms and Degrees)  !
 --------------------------                            --------------------------
 ! Name  Definition              Value          Derivative Info.                !
 --------------------------------------------------------------------------------
 ! R1    R(1,2)                  1.3906         estimate D2E/DX2                !
 ! R2    R(1,6)                  1.3777         estimate D2E/DX2                !
 ! R3    R(1,7)                  1.0791         estimate D2E/DX2                !
 ! R4    R(2,3)                  1.3929         estimate D2E/DX2                !
 ! R5    R(2,9)                  1.4343         estimate D2E/DX2                !
 ! R6    R(3,4)                  1.3752         estimate D2E/DX2                !
 ! R7    R(3,12)                 1.079          estimate D2E/DX2                !
 ! R8    R(4,5)                  1.3981         estimate D2E/DX2                !
 ! R9    R(4,13)                 1.0777         estimate D2E/DX2                !
 ! R10   R(5,6)                  1.3959         estimate D2E/DX2                !
 ! R11   R(5,14)                 1.3461         estimate D2E/DX2                !
 ! R12   R(6,8)                  1.0812         estimate D2E/DX2                !
 ! R13   R(9,10)                 1.2145         estimate D2E/DX2                !
 ! R14   R(9,11)                 1.214          estimate D2E/DX2                !
 ! R15   R(14,15)                0.966          estimate D2E/DX2                !
 ! A1    A(2,1,6)              119.5178         estimate D2E/DX2                !
 ! A2    A(2,1,7)              119.2253         estimate D2E/DX2                !
 ! A3    A(6,1,7)              121.2569         estimate D2E/DX2                !
 ! A4    A(1,2,3)              120.7736         estimate D2E/DX2                !
 ! A5    A(1,2,9)              119.5406         estimate D2E/DX2                !
 ! A6    A(3,2,9)              119.6858         estimate D2E/DX2                !
 ! A7    A(2,3,4)              119.6294         estimate D2E/DX2                !
 ! A8    A(2,3,12)             119.1113         estimate D2E/DX2                !
 ! A9    A(4,3,12)             121.2593         estimate D2E/DX2                !
 ! A10   A(3,4,5)              120.0554         estimate D2E/DX2                !
 ! A11   A(3,4,13)             121.3935         estimate D2E/DX2                !
 ! A12   A(5,4,13)             118.5511         estimate D2E/DX2                !
 ! A13   A(4,5,6)              119.8712         estimate D2E/DX2                !
 ! A14   A(4,5,14)             117.9401         estimate D2E/DX2                !
 ! A15   A(6,5,14)             122.1888         estimate D2E/DX2                !
 ! A16   A(1,6,5)              120.1526         estimate D2E/DX2                !
 ! A17   A(1,6,8)              120.0889         estimate D2E/DX2                !
 ! A18   A(5,6,8)              119.7585         estimate D2E/DX2                !
 ! A19   A(2,9,10)             117.7351         estimate D2E/DX2                !
 ! A20   A(2,9,11)             117.7776         estimate D2E/DX2                !
 ! A21   A(10,9,11)            124.4873         estimate D2E/DX2                !
 ! A22   A(5,14,15)            110.8857         estimate D2E/DX2                !
 ! D1    D(6,1,2,3)             -0.0004         estimate D2E/DX2                !
 ! D2    D(6,1,2,9)            179.9963         estimate D2E/DX2                !
 ! D3    D(7,1,2,3)           -179.9974         estimate D2E/DX2                !
 ! D4    D(7,1,2,9)             -0.0007         estimate D2E/DX2                !
 ! D5    D(2,1,6,5)             -0.0004         estimate D2E/DX2                !
 ! D6    D(2,1,6,8)           -179.9988         estimate D2E/DX2                !
 ! D7    D(7,1,6,5)            179.9965         estimate D2E/DX2                !
 ! D8    D(7,1,6,8)             -0.0019         estimate D2E/DX2                !
 ! D9    D(1,2,3,4)              0.0009         estimate D2E/DX2                !
 ! D10   D(1,2,3,12)           179.9982         estimate D2E/DX2                !
 ! D11   D(9,2,3,4)           -179.9959         estimate D2E/DX2                !
 ! D12   D(9,2,3,12)             0.0014         estimate D2E/DX2                !
 ! D13   D(1,2,9,10)            -0.0123         estimate D2E/DX2                !
 ! D14   D(1,2,9,11)           179.9903         estimate D2E/DX2                !
 ! D15   D(3,2,9,10)           179.9845         estimate D2E/DX2                !
 ! D16   D(3,2,9,11)            -0.0129         estimate D2E/DX2                !
 ! D17   D(2,3,4,5)             -0.0005         estimate D2E/DX2                !
 ! D18   D(2,3,4,13)           179.9987         estimate D2E/DX2                !
 ! D19   D(12,3,4,5)          -179.9978         estimate D2E/DX2                !
 ! D20   D(12,3,4,13)            0.0014         estimate D2E/DX2                !
 ! D21   D(3,4,5,6)             -0.0003         estimate D2E/DX2                !
 ! D22   D(3,4,5,14)          -179.9985         estimate D2E/DX2                !
 ! D23   D(13,4,5,6)          -179.9995         estimate D2E/DX2                !
 ! D24   D(13,4,5,14)            0.0023         estimate D2E/DX2                !
 ! D25   D(4,5,6,1)              0.0008         estimate D2E/DX2                !
 ! D26   D(4,5,6,8)            179.9992         estimate D2E/DX2                !
 ! D27   D(14,5,6,1)           179.9989         estimate D2E/DX2                !
 ! D28   D(14,5,6,8)            -0.0027         estimate D2E/DX2                !
 ! D29   D(4,5,14,15)         -179.9943         estimate D2E/DX2                !
 ! D30   D(6,5,14,15)            0.0076         estimate D2E/DX2                !
 --------------------------------------------------------------------------------
 Trust Radius=3.00D-01 FncErr=1.00D-07 GrdErr=1.00D-07 EigMax=2.50D+02 EigMin=1.00D-04
 Number of steps in this run=     77 maximum allowed number of steps=    100.
 GradGradGradGradGradGradGradGradGradGradGradGradGradGradGradGradGradGrad

                          Input orientation:                          
 ---------------------------------------------------------------------
 Center     Atomic      Atomic             Coordinates (Angstroms)
 Number     Number       Type             X           Y           Z
 ---------------------------------------------------------------------
      1          6           0        0.032870   -1.208625    0.000120
      2          6           0       -0.654336    0.000359    0.000054
      3          6           0        0.033926    1.211337   -0.000035
      4          6           0        1.409094    1.211759   -0.000076
      5          6           0        2.109663    0.001900   -0.000018
      6          6           0        1.410539   -1.206298    0.000088
      7          1           0       -0.525489   -2.132037    0.000146
      8          1           0        1.954180   -2.140905    0.000119
      9          7           0       -2.088619   -0.001494    0.000008
     10          8           0       -2.652422   -1.077157   -0.000202
     11          8           0       -2.655762    1.071845    0.000132
     12          1           0       -0.526254    2.133506   -0.000114
     13          1           0        1.970179    2.131833   -0.000166
     14          8           0        3.454843    0.052000   -0.000030
     15          1           0        3.832577   -0.837084   -0.000077
 ---------------------------------------------------------------------
                    Distance matrix (angstroms):
                    1          2          3          4          5
     1  C    0.000000
     2  C    1.390646   0.000000
     3  C    2.419963   1.392901   0.000000
     4  C    2.784287   2.392747   1.375169   0.000000
     5  C    2.403839   2.764000   2.402379   1.398054   0.000000
     6  C    1.377670   2.391595   2.782090   2.418058   1.395893
     7  H    1.079098   2.136285   3.389851   3.863106   3.390828
     8  H    2.135551   3.374814   3.863277   3.396687   2.148439
     9  N    2.440877   1.434284   2.444617   3.702159   4.198283
    10  O    2.688509   2.270108   3.528976   4.662087   4.882809
    11  O    3.525519   2.270195   2.693302   4.067263   4.884061
    12  H    3.388578   2.136989   1.078979   2.143639   3.389956
    13  H    3.861583   3.381015   2.143919   1.077660   2.134495
    14  O    3.646789   4.109503   3.612026   2.351622   1.346112
    15  H    3.817828   4.564395   4.315759   3.173488   1.916331
                    6          7          8          9         10
     6  C    0.000000
     7  H    2.145972   0.000000
     8  H    1.081220   2.479685   0.000000
     9  N    3.700764   2.642459   4.573981   0.000000
    10  O    4.065013   2.374156   4.727827   1.214465   0.000000
    11  O    4.660980   3.847456   5.619015   1.213963   2.149004
    12  H    3.860758   4.265543   4.941978   2.645602   3.850837
    13  H    3.384718   4.940540   4.272768   4.585294   5.627260
    14  O    2.400519   4.540160   2.657221   5.543719   6.210771
    15  H    2.450018   4.546388   2.286553   5.979864   6.489441
                   11         12         13         14         15
    11  O    0.000000
    12  H    2.379481   0.000000
    13  H    4.745830   2.496433   0.000000
    14  O    6.195124   4.492415   2.555373   0.000000
    15  H    6.763324   5.274828   3.504710   0.965998   0.000000
 Stoichiometry    C6H5NO3
 Framework group  C1[X(C6H5NO3)]
 Deg. of freedom    39
 Full point group                 C1      NOp   1
 Largest Abelian subgroup         C1      NOp   1
 Largest concise Abelian subgroup C1      NOp   1
                         Standard orientation:                         
 ---------------------------------------------------------------------
 Center     Atomic      Atomic             Coordinates (Angstroms)
 Number     Number       Type             X           Y           Z
 ---------------------------------------------------------------------
      1          6           0        0.005308   -1.202865   -0.000120
      2          6           0        0.700315    0.001652   -0.000055
      3          6           0        0.019896    1.217054    0.000034
      4          6           0       -1.355242    1.226366    0.000076
      5          6           0       -2.063616    0.021060    0.000018
      6          6           0       -1.372316   -1.191632   -0.000088
      7          1           0        0.557687   -2.129866   -0.000146
      8          1           0       -1.921988   -2.122706   -0.000120
      9          7           0        2.134556   -0.009472   -0.000009
     10          8           0        2.691394   -1.088757    0.000202
     11          8           0        2.708625    1.060178   -0.000133
     12          1           0        0.586024    2.135583    0.000113
     13          1           0       -1.910367    2.150047    0.000166
     14          8           0       -3.408444    0.079854    0.000030
     15          1           0       -3.791918   -0.806769    0.000076
 ---------------------------------------------------------------------
 Rotational constants (GHZ):           4.0023225           0.8329420           0.6894561
 Standard basis: GTBas1 (6D, 7F)
 There are   160 symmetry adapted cartesian basis functions of A   symmetry.
 There are   160 symmetry adapted basis functions of A   symmetry.
   160 basis functions,   300 primitive gaussians,   160 cartesian basis functions
    36 alpha electrons       36 beta electrons
       nuclear repulsion energy       499.1649510580 Hartrees.
 NAtoms=   15 NActive=   15 NUniq=   15 SFac= 1.00D+00 NAtFMM=   60 NAOKFM=F Big=F
 Integral buffers will be    131072 words long.
 Raffenetti 1 integral format.
 Two-electron integral symmetry is turned on.
 One-electron integrals computed using PRISM.
 NBasis=   160 RedAO= T EigKep=  4.02D-04  NBF=   160
 NBsUse=   160 1.00D-06 EigRej= -1.00D+00 NBFU=   160
 ExpMin= 1.61D-01 ExpMax= 5.48D+03 ExpMxC= 8.25D+02 IAcc=3 IRadAn=         5 AccDes= 0.00D+00
 Harris functional with IExCor=  205 and IRadAn=       5 diagonalized for initial guess.
 HarFok:  IExCor=  205 AccDes= 0.00D+00 IRadAn=         5 IDoV= 1 UseB2=F ITyADJ=14
 ICtDFT=  3500011 ScaDFX=  1.000000  1.000000  1.000000  1.000000
 FoFCou: FMM=F IPFlag=           0 FMFlag=      100000 FMFlg1=           0
         NFxFlg=           0 DoJE=T BraDBF=F KetDBF=T FulRan=T
         wScrn=  0.000000 ICntrl=       500 IOpCl=  0 I1Cent=   200000004 NGrid=           0
         NMat0=    1 NMatS0=      1 NMatT0=    0 NMatD0=    1 NMtDS0=    0 NMtDT0=    0
 Petite list used in FoFCou.
 Keep R1 ints in memory in canonical form, NReq=85041234.
 Requested convergence on RMS density matrix=1.00D-08 within 128 cycles.
 Requested convergence on MAX density matrix=1.00D-06.
 Requested convergence on             energy=1.00D-06.
 No special actions if energy rises.
 SCF Done:  E(RHF) =  -509.030467988     A.U. after   15 cycles
            NFock= 15  Conv=0.38D-08     -V/T= 2.0022

 **********************************************************************

            Population analysis using the SCF density.

 **********************************************************************

 Orbital symmetries:
       Occupied  (A) (A) (A) (A) (A) (A) (A) (A) (A) (A) (A) (A)
                 (A) (A) (A) (A) (A) (A) (A) (A) (A) (A) (A) (A)
                 (A) (A) (A) (A) (A) (A) (A) (A) (A) (A) (A) (A)
       Virtual   (A) (A) (A) (A) (A) (A) (A) (A) (A) (A) (A) (A)
                 (A) (A) (A) (A) (A) (A) (A) (A) (A) (A) (A) (A)
                 (A) (A) (A) (A) (A) (A) (A) (A) (A) (A) (A) (A)
                 (A) (A) (A) (A) (A) (A) (A) (A) (A) (A) (A) (A)
                 (A) (A) (A) (A) (A) (A) (A) (A) (A) (A) (A) (A)
                 (A) (A) (A) (A) (A) (A) (A) (A) (A) (A) (A) (A)
                 (A) (A) (A) (A) (A) (A) (A) (A) (A) (A) (A) (A)
                 (A) (A) (A) (A) (A) (A) (A) (A) (A) (A) (A) (A)
                 (A) (A) (A) (A) (A) (A) (A) (A) (A) (A) (A) (A)
                 (A) (A) (A) (A) (A) (A) (A) (A) (A) (A) (A) (A)
                 (A) (A) (A) (A)
 The electronic state is 1-A.
 Alpha  occ. eigenvalues --  -20.62914 -20.59852 -20.59801 -15.85317 -11.34513
 Alpha  occ. eigenvalues --  -11.29669 -11.28238 -11.27934 -11.26325 -11.25689
 Alpha  occ. eigenvalues --   -1.61156  -1.44323  -1.39910  -1.19954  -1.09084
 Alpha  occ. eigenvalues --   -1.05954  -0.95571  -0.88289  -0.83136  -0.78018
 Alpha  occ. eigenvalues --   -0.76736  -0.72495  -0.72044  -0.68902  -0.65226
 Alpha  occ. eigenvalues --   -0.62812  -0.62145  -0.61575  -0.58600  -0.52523
 Alpha  occ. eigenvalues --   -0.51505  -0.48977  -0.48189  -0.44636  -0.37594
 Alpha  occ. eigenvalues --   -0.34943
 Alpha virt. eigenvalues --    0.06018   0.11311   0.18409   0.19259   0.22791
 Alpha virt. eigenvalues --    0.27729   0.30189   0.33327   0.35739   0.39005
 Alpha virt. eigenvalues --    0.40379   0.44830   0.46580   0.49955   0.51007
 Alpha virt. eigenvalues --    0.55856   0.59826   0.68100   0.68969   0.71153
 Alpha virt. eigenvalues --    0.72094   0.77879   0.78514   0.79007   0.79348
 Alpha virt. eigenvalues --    0.80262   0.80639   0.83547   0.87402   0.88491
 Alpha virt. eigenvalues --    0.89842   0.93947   0.97298   0.97645   1.01555
 Alpha virt. eigenvalues --    1.02300   1.05057   1.07709   1.08518   1.09013
 Alpha virt. eigenvalues --    1.13167   1.14974   1.16039   1.19066   1.21100
 Alpha virt. eigenvalues --    1.21350   1.22675   1.23986   1.26123   1.29218
 Alpha virt. eigenvalues --    1.31863   1.32182   1.39288   1.41128   1.45690
 Alpha virt. eigenvalues --    1.47182   1.48377   1.52186   1.54168   1.60186
 Alpha virt. eigenvalues --    1.62172   1.65355   1.66473   1.69200   1.70845
 Alpha virt. eigenvalues --    1.72095   1.74464   1.75057   1.94289   1.99409
 Alpha virt. eigenvalues --    1.99440   1.99800   2.02805   2.06522   2.08112
 Alpha virt. eigenvalues --    2.10253   2.10895   2.12765   2.19378   2.22260
 Alpha virt. eigenvalues --    2.24569   2.26926   2.28473   2.30863   2.37397
 Alpha virt. eigenvalues --    2.38269   2.40844   2.43515   2.46093   2.46771
 Alpha virt. eigenvalues --    2.54267   2.55574   2.58448   2.61161   2.69308
 Alpha virt. eigenvalues --    2.74105   2.80367   2.82803   2.88711   2.92111
 Alpha virt. eigenvalues --    2.93386   2.97640   3.01254   3.07453   3.07728
 Alpha virt. eigenvalues --    3.11430   3.17855   3.26042   3.27455   3.28084
 Alpha virt. eigenvalues --    3.39418   3.46680   3.60919   3.81674   4.16054
 Alpha virt. eigenvalues --    4.29961   4.36573   4.42776   4.50112   4.51298
 Alpha virt. eigenvalues --    4.64099   4.72139   4.85133   5.17203
          Condensed to atoms (all electrons):
               1          2          3          4          5          6
     1  C    4.910323   0.550190  -0.057667  -0.026130  -0.034471   0.487975
     2  C    0.550190   4.877815   0.540873  -0.046456  -0.025745  -0.045190
     3  C   -0.057667   0.540873   4.895250   0.526217  -0.040148  -0.026754
     4  C   -0.026130  -0.046456   0.526217   4.993270   0.563180  -0.061609
     5  C   -0.034471  -0.025745  -0.040148   0.563180   4.355266   0.540704
     6  C    0.487975  -0.045190  -0.026754  -0.061609   0.540704   5.105109
     7  H    0.364512  -0.015714   0.002990   0.000008   0.000947  -0.023318
     8  H   -0.018854   0.001118   0.000191   0.002613  -0.033578   0.376732
     9  N   -0.047498   0.248390  -0.045827   0.001842  -0.000050   0.002257
    10  O    0.004043  -0.098091   0.004273  -0.000018  -0.000004   0.001005
    11  O    0.004346  -0.096938   0.003796   0.000999  -0.000010  -0.000027
    12  H    0.003136  -0.018357   0.367347  -0.024796   0.001694  -0.000087
    13  H   -0.000131   0.001503  -0.025767   0.377706  -0.026841   0.003647
    14  O    0.004174  -0.000033   0.001996  -0.047274   0.279461  -0.056945
    15  H    0.000537  -0.000014  -0.000144   0.004329  -0.030272   0.000413
               7          8          9         10         11         12
     1  C    0.364512  -0.018854  -0.047498   0.004043   0.004346   0.003136
     2  C   -0.015714   0.001118   0.248390  -0.098091  -0.096938  -0.018357
     3  C    0.002990   0.000191  -0.045827   0.004273   0.003796   0.367347
     4  C    0.000008   0.002613   0.001842  -0.000018   0.000999  -0.024796
     5  C    0.000947  -0.033578  -0.000050  -0.000004  -0.000010   0.001694
     6  C   -0.023318   0.376732   0.002257   0.001005  -0.000027  -0.000087
     7  H    0.389324  -0.001302  -0.006145   0.010161   0.000050  -0.000084
     8  H   -0.001302   0.457643  -0.000051  -0.000002   0.000001   0.000007
     9  N   -0.006145  -0.000051   5.695824   0.328374   0.327896  -0.006010
    10  O    0.010161  -0.000002   0.328374   8.325192  -0.097529   0.000046
    11  O    0.000050   0.000001   0.327896  -0.097529   8.322199   0.009700
    12  H   -0.000084   0.000007  -0.006010   0.000046   0.009700   0.390788
    13  H    0.000007  -0.000095  -0.000041   0.000000  -0.000001  -0.001600
    14  O   -0.000028  -0.002372  -0.000000  -0.000000   0.000000  -0.000032
    15  H   -0.000006   0.004079  -0.000000   0.000000   0.000000   0.000003
              13         14         15
     1  C   -0.000131   0.004174   0.000537
     2  C    0.001503  -0.000033  -0.000014
     3  C   -0.025767   0.001996  -0.000144
     4  C    0.377706  -0.047274   0.004329
     5  C   -0.026841   0.279461  -0.030272
     6  C    0.003647  -0.056945   0.000413
     7  H    0.000007  -0.000028  -0.000006
     8  H   -0.000095  -0.002372   0.004079
     9  N   -0.000041  -0.000000  -0.000000
    10  O    0.000000  -0.000000   0.000000
    11  O   -0.000001   0.000000   0.000000
    12  H   -0.001600  -0.000032   0.000003
    13  H    0.432848  -0.000190  -0.000159
    14  O   -0.000190   8.300866   0.265338
    15  H   -0.000159   0.265338   0.287481
 Mulliken charges:
               1
     1  C   -0.144487
     2  C    0.126649
     3  C   -0.146626
     4  C   -0.263881
     5  C    0.449868
     6  C   -0.303913
     7  H    0.278597
     8  H    0.213871
     9  N    0.501039
    10  O   -0.477451
    11  O   -0.474482
    12  H    0.278245
    13  H    0.239112
    14  O   -0.744960
    15  H    0.468417
 Sum of Mulliken charges =  -0.00000
 Mulliken charges with hydrogens summed into heavy atoms:
               1
     1  C    0.134111
     2  C    0.126649
     3  C    0.131619
     4  C   -0.024769
     5  C    0.449868
     6  C   -0.090042
     9  N    0.501039
    10  O   -0.477451
    11  O   -0.474482
    14  O   -0.276543
 Electronic spatial extent (au):  <R**2>=           1512.8357
 Charge=             -0.0000 electrons
 Dipole moment (field-independent basis, Debye):
    X=             -5.3938    Y=             -1.4458    Z=              0.0000  Tot=              5.5842
 Quadrupole moment (field-independent basis, Debye-Ang):
   XX=            -65.8082   YY=            -51.1314   ZZ=            -58.1385
   XY=              6.5619   XZ=             -0.0009   YZ=              0.0013
 Traceless Quadrupole moment (field-independent basis, Debye-Ang):
   XX=             -7.4488   YY=              7.2280   ZZ=              0.2208
   XY=              6.5619   XZ=             -0.0009   YZ=              0.0013
 Octapole moment (field-independent basis, Debye-Ang**2):
  XXX=            -59.1298  YYY=             -0.4969  ZZZ=              0.0008  XYY=            -16.2673
  XXY=            -26.1295  XXZ=              0.0008  XZZ=              7.6853  YZZ=             -0.1884
  YYZ=              0.0005  XYZ=              0.0024
 Hexadecapole moment (field-independent basis, Debye-Ang**3):
 XXXX=          -1447.9976 YYYY=           -338.5497 ZZZZ=            -54.4683 XXXY=            106.9080
 XXXZ=             -0.0095 YYYX=              5.2650 YYYZ=              0.0023 ZZZX=              0.0003
 ZZZY=             -0.0031 XXYY=           -287.0629 XXZZ=           -240.9226 YYZZ=            -77.7147
 XXYZ=              0.0035 YYXZ=             -0.0012 ZZXY=              0.8126
 N-N= 4.991649510580D+02 E-N=-2.192593962197D+03  KE= 5.078941279561D+02
 Calling FoFJK, ICntrl=      2127 FMM=F ISym2X=0 I1Cent= 0 IOpClX= 0 NMat=1 NMatS=1 NMatT=0.
 ***** Axes restored to original set *****
 -------------------------------------------------------------------
 Center     Atomic                   Forces (Hartrees/Bohr)
 Number     Number              X              Y              Z
 -------------------------------------------------------------------
      1        6          -0.009150897    0.000106319   -0.000005376
      2        6           0.013342969   -0.001618310    0.000000807
      3        6          -0.006846161    0.000975985   -0.000002649
      4        6           0.008157415   -0.000273851   -0.000000131
      5        6          -0.002790565   -0.001179056    0.000005883
      6        6           0.006884608    0.000007592   -0.000001502
      7        1           0.004258176    0.004638487    0.000002024
      8        1          -0.002571415    0.002972459    0.000000961
      9        7          -0.031077593   -0.000106174   -0.000008837
     10        8           0.012536242    0.030042513    0.000009676
     11        8           0.012908939   -0.030108294   -0.000001363
     12        1           0.004335808   -0.004468316    0.000002094
     13        1          -0.002450472   -0.002416734    0.000000656
     14        8          -0.000044643   -0.016643024   -0.000003957
     15        1          -0.007492411    0.018070404    0.000001713
 -------------------------------------------------------------------
 Cartesian Forces:  Max     0.031077593 RMS     0.009774664

 GradGradGradGradGradGradGradGradGradGradGradGradGradGradGradGradGradGrad
 Berny optimization.
 FormGI is forming the generalized inverse of G from B-inverse, IUseBI=4.
 Internal  Forces:  Max     0.032651405 RMS     0.006549472
 Search for a local minimum.
 Step number   1 out of a maximum of   77
 All quantities printed in internal units (Hartrees-Bohrs-Radians)
 Mixed Optimization -- RFO/linear search
 Second derivative matrix not updated -- first step.
 ITU=  0
     Eigenvalues ---    0.01238   0.01238   0.01912   0.02145   0.02190
     Eigenvalues ---    0.02237   0.02239   0.02282   0.02288   0.02318
     Eigenvalues ---    0.02330   0.02405   0.16000   0.16000   0.16000
     Eigenvalues ---    0.16000   0.16000   0.22000   0.22976   0.24000
     Eigenvalues ---    0.25000   0.25000   0.25000   0.25000   0.35847
     Eigenvalues ---    0.36103   0.36118   0.36279   0.40380   0.42455
     Eigenvalues ---    0.43484   0.46562   0.46611   0.48117   0.49785
     Eigenvalues ---    0.54203   0.55857   0.97878   0.98109
 RFO step:  Lambda=-3.85286664D-03 EMin= 1.23826831D-02
 Linear search not attempted -- first point.
 Iteration  1 RMS(Cart)=  0.01235633 RMS(Int)=  0.00005363
 Iteration  2 RMS(Cart)=  0.00007727 RMS(Int)=  0.00000251
 Iteration  3 RMS(Cart)=  0.00000001 RMS(Int)=  0.00000251
 Variable       Old X    -DE/DX   Delta X   Delta X   Delta X     New X
                                 (Linear)    (Quad)   (Total)
    R1        2.62794  -0.00599   0.00000  -0.01253  -0.01254   2.61540
    R2        2.60342   0.00036   0.00000   0.00077   0.00077   2.60419
    R3        2.03920  -0.00617   0.00000  -0.01692  -0.01692   2.02228
    R4        2.63220  -0.00376   0.00000  -0.00797  -0.00797   2.62423
    R5        2.71040   0.00563   0.00000   0.01382   0.01382   2.72422
    R6        2.59869  -0.00067   0.00000  -0.00137  -0.00137   2.59732
    R7        2.03898  -0.00607   0.00000  -0.01663  -0.01663   2.02235
    R8        2.64194  -0.00637   0.00000  -0.01379  -0.01378   2.62816
    R9        2.03648  -0.00334   0.00000  -0.00911  -0.00911   2.02737
   R10        2.63786  -0.00493   0.00000  -0.01057  -0.01056   2.62729
   R11        2.54378  -0.00748   0.00000  -0.01330  -0.01330   2.53049
   R12        2.04321  -0.00386   0.00000  -0.01066  -0.01066   2.03255
   R13        2.29501  -0.03243   0.00000  -0.03300  -0.03300   2.26200
   R14        2.29406  -0.03265   0.00000  -0.03315  -0.03315   2.26091
   R15        1.82547  -0.01956   0.00000  -0.03583  -0.03583   1.78964
    A1        2.08598  -0.00091   0.00000  -0.00348  -0.00348   2.08250
    A2        2.08087   0.00172   0.00000   0.00948   0.00948   2.09035
    A3        2.11633  -0.00081   0.00000  -0.00600  -0.00600   2.11033
    A4        2.10790   0.00141   0.00000   0.00599   0.00598   2.11388
    A5        2.08638  -0.00071   0.00000  -0.00300  -0.00300   2.08338
    A6        2.08891  -0.00070   0.00000  -0.00298  -0.00298   2.08593
    A7        2.08793  -0.00031   0.00000  -0.00112  -0.00113   2.08680
    A8        2.07888   0.00157   0.00000   0.00918   0.00919   2.08807
    A9        2.11637  -0.00126   0.00000  -0.00806  -0.00806   2.10832
   A10        2.09536  -0.00162   0.00000  -0.00707  -0.00706   2.08830
   A11        2.11872  -0.00004   0.00000  -0.00165  -0.00165   2.11707
   A12        2.06911   0.00166   0.00000   0.00872   0.00871   2.07782
   A13        2.09215   0.00275   0.00000   0.01107   0.01108   2.10322
   A14        2.05844  -0.00370   0.00000  -0.01470  -0.01470   2.04374
   A15        2.13260   0.00095   0.00000   0.00363   0.00363   2.13622
   A16        2.09706  -0.00131   0.00000  -0.00539  -0.00538   2.09168
   A17        2.09595  -0.00009   0.00000  -0.00185  -0.00185   2.09410
   A18        2.09018   0.00140   0.00000   0.00723   0.00723   2.09741
   A19        2.05486   0.00232   0.00000   0.00915   0.00915   2.06401
   A20        2.05561   0.00188   0.00000   0.00741   0.00741   2.06302
   A21        2.17271  -0.00420   0.00000  -0.01656  -0.01656   2.15615
   A22        1.93532   0.00031   0.00000   0.00190   0.00190   1.93722
    D1       -0.00001   0.00000   0.00000   0.00003   0.00003   0.00002
    D2        3.14153   0.00000   0.00000   0.00008   0.00008  -3.14158
    D3       -3.14155  -0.00000   0.00000  -0.00004  -0.00004  -3.14159
    D4       -0.00001   0.00000   0.00000   0.00001   0.00001  -0.00001
    D5       -0.00001  -0.00000   0.00000  -0.00001  -0.00001  -0.00002
    D6       -3.14157  -0.00000   0.00000  -0.00004  -0.00004   3.14158
    D7        3.14153   0.00000   0.00000   0.00006   0.00006  -3.14159
    D8       -0.00003   0.00000   0.00000   0.00004   0.00004   0.00000
    D9        0.00002  -0.00000   0.00000  -0.00002  -0.00002  -0.00001
   D10        3.14156   0.00000   0.00000   0.00003   0.00003  -3.14159
   D11       -3.14152  -0.00000   0.00000  -0.00007  -0.00007   3.14159
   D12        0.00002  -0.00000   0.00000  -0.00002  -0.00002   0.00001
   D13       -0.00021   0.00000   0.00000   0.00023   0.00023   0.00001
   D14        3.14142  -0.00000   0.00000  -0.00017  -0.00017   3.14126
   D15        3.14132   0.00000   0.00000   0.00027   0.00027  -3.14159
   D16       -0.00022  -0.00000   0.00000  -0.00012  -0.00012  -0.00034
   D17       -0.00001   0.00000   0.00000   0.00000   0.00000  -0.00001
   D18        3.14157   0.00000   0.00000   0.00002   0.00002   3.14159
   D19       -3.14155  -0.00000   0.00000  -0.00006  -0.00006   3.14158
   D20        0.00003  -0.00000   0.00000  -0.00004  -0.00004  -0.00001
   D21       -0.00000   0.00000   0.00000   0.00002   0.00002   0.00001
   D22       -3.14157  -0.00000   0.00000  -0.00002  -0.00002  -3.14159
   D23       -3.14158  -0.00000   0.00000  -0.00000  -0.00000  -3.14159
   D24        0.00004  -0.00000   0.00000  -0.00004  -0.00004  -0.00000
   D25        0.00001  -0.00000   0.00000  -0.00001  -0.00001   0.00000
   D26        3.14158   0.00000   0.00000   0.00002   0.00001  -3.14159
   D27        3.14157   0.00000   0.00000   0.00003   0.00003  -3.14158
   D28       -0.00005   0.00000   0.00000   0.00006   0.00006   0.00001
   D29       -3.14149  -0.00000   0.00000  -0.00000  -0.00000  -3.14150
   D30        0.00013  -0.00000   0.00000  -0.00004  -0.00004   0.00009
         Item               Value     Threshold  Converged?
 Maximum Force            0.032651     0.000450     NO 
 RMS     Force            0.006549     0.000300     NO 
 Maximum Displacement     0.048759     0.001800     NO 
 RMS     Displacement     0.012357     0.001200     NO 
 Predicted change in Energy=-1.938856D-03
 GradGradGradGradGradGradGradGradGradGradGradGradGradGradGradGradGradGrad

                          Input orientation:                          
 ---------------------------------------------------------------------
 Center     Atomic      Atomic             Coordinates (Angstroms)
 Number     Number       Type             X           Y           Z
 ---------------------------------------------------------------------
      1          6           0        0.031890   -1.208991    0.000026
      2          6           0       -0.645915   -0.002314   -0.000044
      3          6           0        0.039178    1.205610   -0.000105
      4          6           0        1.413620    1.205716   -0.000087
      5          6           0        2.101735   -0.002883    0.000002
      6          6           0        1.409967   -1.208869    0.000059
      7          1           0       -0.517804   -2.127169    0.000071
      8          1           0        1.947563   -2.140460    0.000129
      9          7           0       -2.087510   -0.001176   -0.000061
     10          8           0       -2.655076   -1.055065   -0.000003
     11          8           0       -2.652088    1.053657    0.000234
     12          1           0       -0.508833    2.124833   -0.000158
     13          1           0        1.970895    2.122467   -0.000135
     14          8           0        3.439477    0.056866    0.000021
     15          1           0        3.817890   -0.811281   -0.000002
 ---------------------------------------------------------------------
                    Distance matrix (angstroms):
                    1          2          3          4          5
     1  C    0.000000
     2  C    1.384012   0.000000
     3  C    2.414613   1.388681   0.000000
     4  C    2.782084   2.387681   1.374442   0.000000
     5  C    2.395612   2.747650   2.390523   1.390761   0.000000
     6  C    1.378077   2.383784   2.776468   2.414588   1.390304
     7  H    1.070147   2.128713   3.379001   3.852080   3.372622
     8  H    2.130126   3.361219   3.852029   3.388509   2.143130
     9  N    2.439401   1.441596   2.445227   3.703309   4.189246
    10  O    2.691371   2.268262   3.517052   4.654612   4.871790
    11  O    3.510458   2.267114   2.695552   4.068550   4.869817
    12  H    3.377390   2.131560   1.070180   2.130868   3.367824
    13  H    3.854653   3.370814   2.138260   1.072840   2.129374
    14  O    3.635113   4.085820   3.589102   2.328939   1.339075
    15  H    3.806832   4.536517   4.283284   3.138279   1.897023
                    6          7          8          9         10
     6  C    0.000000
     7  H    2.135317   0.000000
     8  H    1.075579   2.465403   0.000000
     9  N    3.700118   2.642692   4.567094   0.000000
    10  O    4.067952   2.391095   4.728886   1.197001   0.000000
    11  O    4.649658   3.830512   5.599926   1.196421   2.108724
    12  H    3.846474   4.252011   4.922053   2.648044   3.836419
    13  H    3.378230   4.924736   4.262991   4.580448   5.612157
    14  O    2.391860   4.519965   2.655946   5.527292   6.195157
    15  H    2.440526   4.530983   2.294524   5.960707   6.477555
                   11         12         13         14         15
    11  O    0.000000
    12  H    2.396030   0.000000
    13  H    4.744926   2.479728   0.000000
    14  O    6.172581   4.457088   2.534451   0.000000
    15  H    6.733396   5.228891   3.466738   0.947036   0.000000
 Stoichiometry    C6H5NO3
 Framework group  C1[X(C6H5NO3)]
 Deg. of freedom    39
 Full point group                 C1      NOp   1
 Largest Abelian subgroup         C1      NOp   1
 Largest concise Abelian subgroup C1      NOp   1
                         Standard orientation:                         
 ---------------------------------------------------------------------
 Center     Atomic      Atomic             Coordinates (Angstroms)
 Number     Number       Type             X           Y           Z
 ---------------------------------------------------------------------
      1          6           0        0.006504   -1.202568   -0.000018
      2          6           0        0.691184    0.000221    0.000052
      3          6           0        0.012997    1.212036    0.000114
      4          6           0       -1.361422    1.219986    0.000095
      5          6           0       -2.056424    0.015334    0.000006
      6          6           0       -1.371551   -1.194581   -0.000051
      7          1           0        0.550949   -2.123868   -0.000063
      8          1           0       -1.914454   -2.123089   -0.000120
      9          7           0        2.132763   -0.006868    0.000070
     10          8           0        2.694304   -1.063979    0.000011
     11          8           0        2.703351    1.044726   -0.000225
     12          1           0        0.566245    2.128116    0.000166
     13          1           0       -1.913456    2.139902    0.000143
     14          8           0       -3.393803    0.082717   -0.000013
     15          1           0       -3.777165   -0.783257    0.000010
 ---------------------------------------------------------------------
 Rotational constants (GHZ):           4.0589842           0.8362537           0.6933965
 Standard basis: GTBas1 (6D, 7F)
 There are   160 symmetry adapted cartesian basis functions of A   symmetry.
 There are   160 symmetry adapted basis functions of A   symmetry.
   160 basis functions,   300 primitive gaussians,   160 cartesian basis functions
    36 alpha electrons       36 beta electrons
       nuclear repulsion energy       501.3658934237 Hartrees.
 NAtoms=   15 NActive=   15 NUniq=   15 SFac= 1.00D+00 NAtFMM=   60 NAOKFM=F Big=F
 Integral buffers will be    131072 words long.
 Raffenetti 1 integral format.
 Two-electron integral symmetry is turned on.
 One-electron integrals computed using PRISM.
 NBasis=   160 RedAO= T EigKep=  3.93D-04  NBF=   160
 NBsUse=   160 1.00D-06 EigRej= -1.00D+00 NBFU=   160
 Initial guess from the checkpoint file:  "/home/artemiy/opt/gaussian/scr/Gau-46393.chk"
 B after Tr=    -0.000000   -0.000000   -0.000000
         Rot=    1.000000   -0.000003   -0.000005   -0.000598 Ang=  -0.07 deg.
 ExpMin= 1.61D-01 ExpMax= 5.48D+03 ExpMxC= 8.25D+02 IAcc=2 IRadAn=         4 AccDes= 0.00D+00
 Harris functional with IExCor=  205 and IRadAn=       4 diagonalized for initial guess.
 HarFok:  IExCor=  205 AccDes= 0.00D+00 IRadAn=         4 IDoV= 1 UseB2=F ITyADJ=14
 ICtDFT=  3500011 ScaDFX=  1.000000  1.000000  1.000000  1.000000
 FoFCou: FMM=F IPFlag=           0 FMFlag=      100000 FMFlg1=           0
         NFxFlg=           0 DoJE=T BraDBF=F KetDBF=T FulRan=T
         wScrn=  0.000000 ICntrl=       500 IOpCl=  0 I1Cent=   200000004 NGrid=           0
         NMat0=    1 NMatS0=      1 NMatT0=    0 NMatD0=    1 NMtDS0=    0 NMtDT0=    0
 Petite list used in FoFCou.
 Keep R1 ints in memory in canonical form, NReq=85041234.
 Requested convergence on RMS density matrix=1.00D-08 within 128 cycles.
 Requested convergence on MAX density matrix=1.00D-06.
 Requested convergence on             energy=1.00D-06.
 No special actions if energy rises.
 SCF Done:  E(RHF) =  -509.032374276     A.U. after   13 cycles
            NFock= 13  Conv=0.39D-08     -V/T= 2.0016
 Calling FoFJK, ICntrl=      2127 FMM=F ISym2X=0 I1Cent= 0 IOpClX= 0 NMat=1 NMatS=1 NMatT=0.
 ***** Axes restored to original set *****
 -------------------------------------------------------------------
 Center     Atomic                   Forces (Hartrees/Bohr)
 Number     Number              X              Y              Z
 -------------------------------------------------------------------
      1        6          -0.002682343    0.001274551   -0.000000648
      2        6           0.005189211   -0.000458363   -0.000017917
      3        6          -0.002074660   -0.000263028   -0.000000038
      4        6           0.000028815    0.000364735    0.000001326
      5        6          -0.000228388   -0.000066110   -0.000001814
      6        6           0.001931341    0.000185363    0.000000224
      7        1          -0.000244086   -0.000840129   -0.000000638
      8        1           0.000048393   -0.000271841    0.000000172
      9        7          -0.011666904    0.000137768    0.000071145
     10        8           0.004263105   -0.000732880   -0.000025286
     11        8           0.004107081    0.000737151   -0.000026438
     12        1          -0.000398096    0.000767527   -0.000000652
     13        1           0.000001570    0.000169691    0.000000099
     14        8           0.000519477   -0.000570660   -0.000000358
     15        1           0.001205483   -0.000433773    0.000000822
 -------------------------------------------------------------------
 Cartesian Forces:  Max     0.011666904 RMS     0.002213120

 GradGradGradGradGradGradGradGradGradGradGradGradGradGradGradGradGradGrad
 Berny optimization.
 Using GEDIIS/GDIIS optimizer.
 FormGI is forming the generalized inverse of G from B-inverse, IUseBI=4.
 Internal  Forces:  Max     0.006083195 RMS     0.001164388
 Search for a local minimum.
 Step number   2 out of a maximum of   77
 All quantities printed in internal units (Hartrees-Bohrs-Radians)
 Mixed Optimization -- RFO/linear search
 Update second derivatives using D2CorX and points    1    2
 DE= -1.91D-03 DEPred=-1.94D-03 R= 9.83D-01
 TightC=F SS=  1.41D+00  RLast= 8.03D-02 DXNew= 5.0454D-01 2.4090D-01
 Trust test= 9.83D-01 RLast= 8.03D-02 DXMaxT set to 3.00D-01
 ITU=  1  0
 Use linear search instead of GDIIS.
     Eigenvalues ---    0.01238   0.01238   0.01915   0.02145   0.02189
     Eigenvalues ---    0.02236   0.02239   0.02282   0.02287   0.02317
     Eigenvalues ---    0.02329   0.02405   0.15791   0.16000   0.16000
     Eigenvalues ---    0.16000   0.16070   0.22007   0.23018   0.23639
     Eigenvalues ---    0.24880   0.25000   0.25000   0.26633   0.35861
     Eigenvalues ---    0.36111   0.36255   0.36829   0.39282   0.42520
     Eigenvalues ---    0.43511   0.46455   0.46904   0.48024   0.49681
     Eigenvalues ---    0.54942   0.57828   0.93892   0.98002
 RFO step:  Lambda=-2.91961042D-04 EMin= 1.23826804D-02
 Quartic linear search produced a step of -0.02824.
 Iteration  1 RMS(Cart)=  0.00412220 RMS(Int)=  0.00002718
 Iteration  2 RMS(Cart)=  0.00002735 RMS(Int)=  0.00000058
 Iteration  3 RMS(Cart)=  0.00000000 RMS(Int)=  0.00000058
 Variable       Old X    -DE/DX   Delta X   Delta X   Delta X     New X
                                 (Linear)    (Quad)   (Total)
    R1        2.61540  -0.00075   0.00035  -0.00300  -0.00265   2.61276
    R2        2.60419   0.00205  -0.00002   0.00408   0.00406   2.60825
    R3        2.02228   0.00085   0.00048   0.00046   0.00094   2.02322
    R4        2.62423  -0.00054   0.00023  -0.00209  -0.00186   2.62237
    R5        2.72422   0.00330  -0.00039   0.00941   0.00902   2.73324
    R6        2.59732   0.00146   0.00004   0.00270   0.00274   2.60006
    R7        2.02235   0.00086   0.00047   0.00053   0.00100   2.02335
    R8        2.62816   0.00165   0.00039   0.00215   0.00253   2.63069
    R9        2.02737   0.00015   0.00026  -0.00059  -0.00033   2.02704
   R10        2.62729   0.00005   0.00030  -0.00091  -0.00062   2.62668
   R11        2.53049   0.00168   0.00038   0.00150   0.00188   2.53237
   R12        2.03255   0.00026   0.00030  -0.00044  -0.00014   2.03241
   R13        2.26200  -0.00138   0.00093  -0.00485  -0.00392   2.25809
   R14        2.26091  -0.00129   0.00094  -0.00477  -0.00384   2.25707
   R15        1.78964   0.00088   0.00101  -0.00224  -0.00123   1.78841
    A1        2.08250  -0.00002   0.00010  -0.00077  -0.00067   2.08183
    A2        2.09035   0.00024  -0.00027   0.00261   0.00234   2.09269
    A3        2.11033  -0.00021   0.00017  -0.00184  -0.00167   2.10867
    A4        2.11388   0.00087  -0.00017   0.00362   0.00346   2.11733
    A5        2.08338  -0.00040   0.00008  -0.00166  -0.00158   2.08180
    A6        2.08593  -0.00048   0.00008  -0.00196  -0.00188   2.08406
    A7        2.08680  -0.00057   0.00003  -0.00281  -0.00278   2.08402
    A8        2.08807   0.00034  -0.00026   0.00268   0.00242   2.09049
    A9        2.10832   0.00023   0.00023   0.00013   0.00036   2.10868
   A10        2.08830   0.00036   0.00020   0.00115   0.00135   2.08965
   A11        2.11707  -0.00027   0.00005  -0.00169  -0.00164   2.11543
   A12        2.07782  -0.00009  -0.00025   0.00053   0.00029   2.07811
   A13        2.10322  -0.00057  -0.00031  -0.00055  -0.00087   2.10236
   A14        2.04374   0.00082   0.00042   0.00135   0.00177   2.04551
   A15        2.13622  -0.00025  -0.00010  -0.00080  -0.00090   2.13532
   A16        2.09168  -0.00006   0.00015  -0.00064  -0.00049   2.09119
   A17        2.09410  -0.00006   0.00005  -0.00076  -0.00071   2.09339
   A18        2.09741   0.00013  -0.00020   0.00140   0.00120   2.09861
   A19        2.06401  -0.00319  -0.00026  -0.01140  -0.01166   2.05235
   A20        2.06302  -0.00289  -0.00021  -0.01041  -0.01063   2.05239
   A21        2.15615   0.00608   0.00047   0.02182   0.02228   2.17844
   A22        1.93722   0.00167  -0.00005   0.01032   0.01027   1.94748
    D1        0.00002   0.00000  -0.00000   0.00002   0.00002   0.00004
    D2       -3.14158   0.00000  -0.00000   0.00001   0.00001  -3.14157
    D3       -3.14159   0.00000   0.00000   0.00001   0.00001  -3.14158
    D4       -0.00001   0.00000  -0.00000   0.00001   0.00001   0.00000
    D5       -0.00002  -0.00000   0.00000  -0.00001  -0.00001  -0.00002
    D6        3.14158  -0.00000   0.00000  -0.00001  -0.00001   3.14156
    D7       -3.14159  -0.00000  -0.00000  -0.00000  -0.00000   3.14159
    D8        0.00000  -0.00000  -0.00000  -0.00001  -0.00001  -0.00000
    D9       -0.00001  -0.00000   0.00000  -0.00002  -0.00002  -0.00003
   D10       -3.14159  -0.00000  -0.00000  -0.00001  -0.00001   3.14158
   D11        3.14159  -0.00000   0.00000  -0.00002  -0.00002   3.14157
   D12        0.00001  -0.00000   0.00000  -0.00001  -0.00001   0.00000
   D13        0.00001  -0.00002  -0.00001  -0.00181  -0.00182  -0.00181
   D14        3.14126   0.00003   0.00000   0.00194   0.00194  -3.13999
   D15       -3.14159  -0.00002  -0.00001  -0.00182  -0.00182   3.13977
   D16       -0.00034   0.00003   0.00000   0.00193   0.00194   0.00159
   D17       -0.00001   0.00000  -0.00000   0.00002   0.00002   0.00001
   D18        3.14159   0.00000  -0.00000   0.00001   0.00001  -3.14158
   D19        3.14158   0.00000   0.00000   0.00001   0.00001   3.14158
   D20       -0.00001   0.00000   0.00000   0.00000   0.00000  -0.00001
   D21        0.00001  -0.00000  -0.00000  -0.00001  -0.00001   0.00000
   D22       -3.14159   0.00000   0.00000   0.00001   0.00001  -3.14158
   D23       -3.14159  -0.00000   0.00000  -0.00000  -0.00000  -3.14159
   D24       -0.00000   0.00000   0.00000   0.00001   0.00001   0.00001
   D25        0.00000   0.00000   0.00000   0.00000   0.00000   0.00000
   D26       -3.14159   0.00000  -0.00000   0.00001   0.00001  -3.14158
   D27       -3.14158  -0.00000  -0.00000  -0.00001  -0.00001   3.14159
   D28        0.00001  -0.00000  -0.00000  -0.00001  -0.00001   0.00000
   D29       -3.14150  -0.00000   0.00000  -0.00004  -0.00004  -3.14153
   D30        0.00009  -0.00000   0.00000  -0.00002  -0.00002   0.00007
         Item               Value     Threshold  Converged?
 Maximum Force            0.006083     0.000450     NO 
 RMS     Force            0.001164     0.000300     NO 
 Maximum Displacement     0.015624     0.001800     NO 
 RMS     Displacement     0.004115     0.001200     NO 
 Predicted change in Energy=-1.478115D-04
 GradGradGradGradGradGradGradGradGradGradGradGradGradGradGradGradGradGrad

                          Input orientation:                          
 ---------------------------------------------------------------------
 Center     Atomic      Atomic             Coordinates (Angstroms)
 Number     Number       Type             X           Y           Z
 ---------------------------------------------------------------------
      1          6           0        0.029058   -1.208312    0.000383
      2          6           0       -0.646230   -0.001828    0.000458
      3          6           0        0.036037    1.206564    0.000233
      4          6           0        1.411928    1.205512   -0.000035
      5          6           0        2.101323   -0.003902   -0.000088
      6          6           0        1.409285   -1.209357    0.000123
      7          1           0       -0.520136   -2.127366    0.000547
      8          1           0        1.945391   -2.141720    0.000089
      9          7           0       -2.092597   -0.000775    0.000763
     10          8           0       -2.646808   -1.059407   -0.000978
     11          8           0       -2.645060    1.058163   -0.000879
     12          1           0       -0.511803    2.126506    0.000287
     13          1           0        1.968382    2.122556   -0.000203
     14          8           0        3.440133    0.054208   -0.000341
     15          1           0        3.826087   -0.809903   -0.000410
 ---------------------------------------------------------------------
                    Distance matrix (angstroms):
                    1          2          3          4          5
     1  C    0.000000
     2  C    1.382612   0.000000
     3  C    2.414886   1.387696   0.000000
     4  C    2.781883   2.386144   1.375892   0.000000
     5  C    2.396849   2.747554   2.393875   1.392102   0.000000
     6  C    1.380227   2.383960   2.778936   2.414870   1.389977
     7  H    1.070642   2.129275   3.380003   3.852395   3.373596
     8  H    2.131568   3.360898   3.854431   3.389475   2.143497
     9  N    2.441223   1.446368   2.447192   3.706322   4.193921
    10  O    2.680007   2.262916   3.511735   4.647924   4.864035
    11  O    3.505399   2.262500   2.685202   4.059664   4.863758
    12  H    3.378394   2.132576   1.070711   2.132832   3.371509
    13  H    3.854304   3.368858   2.138457   1.072665   2.130610
    14  O    3.637222   4.086747   3.593855   2.332191   1.340070
    15  H    3.817874   4.544734   4.293090   3.144847   1.903798
                    6          7          8          9         10
     6  C    0.000000
     7  H    2.136681   0.000000
     8  H    1.075505   2.465569   0.000000
     9  N    3.704571   2.644811   4.570448   0.000000
    10  O    4.058864   2.379763   4.718018   1.194929   0.000000
    11  O    4.645360   3.829217   5.595668   1.194390   2.117571
    12  H    3.849489   4.253880   4.924993   2.650327   3.835139
    13  H    3.378496   4.924892   4.264338   4.582585   5.605789
    14  O    2.391848   4.521393   2.656379   5.533003   6.187971
    15  H    2.449591   4.541516   2.304507   5.973735   6.477702
                   11         12         13         14         15
    11  O    0.000000
    12  H    2.385822   0.000000
    13  H    4.734636   2.480188   0.000000
    14  O    6.167455   4.462311   2.538527   0.000000
    15  H    6.735386   5.238301   3.471367   0.946387   0.000000
 Stoichiometry    C6H5NO3
 Framework group  C1[X(C6H5NO3)]
 Deg. of freedom    39
 Full point group                 C1      NOp   1
 Largest Abelian subgroup         C1      NOp   1
 Largest concise Abelian subgroup C1      NOp   1
                         Standard orientation:                         
 ---------------------------------------------------------------------
 Center     Atomic      Atomic             Coordinates (Angstroms)
 Number     Number       Type             X           Y           Z
 ---------------------------------------------------------------------
      1          6           0        0.009182   -1.201732   -0.000459
      2          6           0        0.692000    0.000506   -0.000534
      3          6           0        0.017302    1.213140   -0.000309
      4          6           0       -1.358568    1.220691   -0.000042
      5          6           0       -2.055512    0.015611    0.000012
      6          6           0       -1.371025   -1.194147   -0.000199
      7          1           0        0.552618   -2.124202   -0.000624
      8          1           0       -1.912951   -2.123139   -0.000165
      9          7           0        2.138346   -0.007485   -0.000839
     10          8           0        2.685927   -1.069562    0.000901
     11          8           0        2.697420    1.047978    0.000803
     12          1           0        0.570884    2.129639   -0.000363
     13          1           0       -1.909277    2.141197    0.000127
     14          8           0       -3.393932    0.082092    0.000264
     15          1           0       -3.785282   -0.779589    0.000334
 ---------------------------------------------------------------------
 Rotational constants (GHZ):           4.0485076           0.8376088           0.6940207
 Standard basis: GTBas1 (6D, 7F)
 There are   160 symmetry adapted cartesian basis functions of A   symmetry.
 There are   160 symmetry adapted basis functions of A   symmetry.
   160 basis functions,   300 primitive gaussians,   160 cartesian basis functions
    36 alpha electrons       36 beta electrons
       nuclear repulsion energy       501.4095585632 Hartrees.
 NAtoms=   15 NActive=   15 NUniq=   15 SFac= 1.00D+00 NAtFMM=   60 NAOKFM=F Big=F
 Integral buffers will be    131072 words long.
 Raffenetti 1 integral format.
 Two-electron integral symmetry is turned on.
 One-electron integrals computed using PRISM.
 NBasis=   160 RedAO= T EigKep=  3.95D-04  NBF=   160
 NBsUse=   160 1.00D-06 EigRej= -1.00D+00 NBFU=   160
 Initial guess from the checkpoint file:  "/home/artemiy/opt/gaussian/scr/Gau-46393.chk"
 B after Tr=     0.000000   -0.000000    0.000000
         Rot=    1.000000   -0.000009    0.000029    0.000180 Ang=  -0.02 deg.
 Keep R1 ints in memory in canonical form, NReq=85041234.
 Requested convergence on RMS density matrix=1.00D-08 within 128 cycles.
 Requested convergence on MAX density matrix=1.00D-06.
 Requested convergence on             energy=1.00D-06.
 No special actions if energy rises.
 SCF Done:  E(RHF) =  -509.032474568     A.U. after   12 cycles
            NFock= 12  Conv=0.36D-08     -V/T= 2.0017
 Calling FoFJK, ICntrl=      2127 FMM=F ISym2X=0 I1Cent= 0 IOpClX= 0 NMat=1 NMatS=1 NMatT=0.
 ***** Axes restored to original set *****
 -------------------------------------------------------------------
 Center     Atomic                   Forces (Hartrees/Bohr)
 Number     Number              X              Y              Z
 -------------------------------------------------------------------
      1        6          -0.000078232    0.000368164    0.000024002
      2        6           0.002201508   -0.000249440    0.000163683
      3        6           0.000409741   -0.000149800    0.000024532
      4        6          -0.000265814   -0.000150467   -0.000007123
      5        6          -0.000080089   -0.000551446    0.000002426
      6        6           0.000092398    0.000402558   -0.000007931
      7        1          -0.000089995   -0.000317912    0.000001613
      8        1           0.000144033   -0.000228089   -0.000002721
      9        7           0.001495004   -0.000058851   -0.000692300
     10        8          -0.002202429    0.000292730    0.000248198
     11        8          -0.002124475   -0.000263770    0.000247043
     12        1          -0.000084436    0.000282806    0.000001190
     13        1           0.000213576    0.000236142   -0.000002452
     14        8           0.000151185    0.001831911   -0.000000405
     15        1           0.000218026   -0.001444537    0.000000246
 -------------------------------------------------------------------
 Cartesian Forces:  Max     0.002202429 RMS     0.000731612

 GradGradGradGradGradGradGradGradGradGradGradGradGradGradGradGradGradGrad
 Berny optimization.
 Using GEDIIS/GDIIS optimizer.
 FormGI is forming the generalized inverse of G from B-inverse, IUseBI=4.
 Internal  Forces:  Max     0.003079581 RMS     0.000638715
 Search for a local minimum.
 Step number   3 out of a maximum of   77
 All quantities printed in internal units (Hartrees-Bohrs-Radians)
 Mixed Optimization -- En-DIIS/RFO-DIIS
 Update second derivatives using D2CorX and points    1    2    3
 DE= -1.00D-04 DEPred=-1.48D-04 R= 6.79D-01
 TightC=F SS=  1.41D+00  RLast= 3.28D-02 DXNew= 5.0454D-01 9.8432D-02
 Trust test= 6.79D-01 RLast= 3.28D-02 DXMaxT set to 3.00D-01
 ITU=  1  1  0
 Use linear search instead of GDIIS.
     Eigenvalues ---    0.01238   0.01248   0.01916   0.02145   0.02189
     Eigenvalues ---    0.02236   0.02239   0.02281   0.02287   0.02317
     Eigenvalues ---    0.02329   0.02405   0.15656   0.16000   0.16000
     Eigenvalues ---    0.16004   0.16182   0.21982   0.22912   0.24022
     Eigenvalues ---    0.24976   0.25000   0.25017   0.29638   0.35864
     Eigenvalues ---    0.36111   0.36213   0.36627   0.40750   0.43464
     Eigenvalues ---    0.45565   0.46798   0.47137   0.47986   0.50573
     Eigenvalues ---    0.55707   0.57159   0.94952   0.98003
 RFO step:  Lambda=-4.44826234D-05 EMin= 1.23826306D-02
 Quartic linear search produced a step of -0.24244.
 Iteration  1 RMS(Cart)=  0.00441331 RMS(Int)=  0.00004780
 Iteration  2 RMS(Cart)=  0.00003667 RMS(Int)=  0.00002969
 Iteration  3 RMS(Cart)=  0.00000000 RMS(Int)=  0.00002969
 Variable       Old X    -DE/DX   Delta X   Delta X   Delta X     New X
                                 (Linear)    (Quad)   (Total)
    R1        2.61276   0.00007   0.00064  -0.00085  -0.00021   2.61255
    R2        2.60825   0.00039  -0.00099   0.00219   0.00120   2.60946
    R3        2.02322   0.00032  -0.00023   0.00111   0.00089   2.02411
    R4        2.62237   0.00040   0.00045  -0.00004   0.00041   2.62278
    R5        2.73324   0.00283  -0.00219   0.00871   0.00652   2.73976
    R6        2.60006   0.00008  -0.00066   0.00119   0.00053   2.60059
    R7        2.02335   0.00029  -0.00024   0.00107   0.00083   2.02418
    R8        2.63069   0.00006  -0.00061   0.00113   0.00052   2.63121
    R9        2.02704   0.00031   0.00008   0.00056   0.00064   2.02768
   R10        2.62668  -0.00007   0.00015  -0.00032  -0.00017   2.62650
   R11        2.53237   0.00039  -0.00046   0.00132   0.00086   2.53323
   R12        2.03241   0.00027   0.00003   0.00056   0.00059   2.03300
   R13        2.25809   0.00076   0.00095  -0.00080   0.00015   2.25823
   R14        2.25707   0.00075   0.00093  -0.00078   0.00015   2.25722
   R15        1.78841   0.00141   0.00030   0.00163   0.00193   1.79034
    A1        2.08183   0.00008   0.00016   0.00005   0.00021   2.08204
    A2        2.09269   0.00005  -0.00057   0.00112   0.00055   2.09325
    A3        2.10867  -0.00013   0.00040  -0.00117  -0.00076   2.10790
    A4        2.11733  -0.00033  -0.00084   0.00037  -0.00047   2.11686
    A5        2.08180   0.00021   0.00038   0.00002   0.00040   2.08220
    A6        2.08406   0.00012   0.00045  -0.00039   0.00006   2.08412
    A7        2.08402   0.00017   0.00067  -0.00052   0.00016   2.08418
    A8        2.09049  -0.00001  -0.00059   0.00095   0.00037   2.09085
    A9        2.10868  -0.00016  -0.00009  -0.00043  -0.00052   2.10816
   A10        2.08965   0.00009  -0.00033   0.00079   0.00046   2.09011
   A11        2.11543   0.00001   0.00040  -0.00046  -0.00006   2.11537
   A12        2.07811  -0.00011  -0.00007  -0.00033  -0.00040   2.07771
   A13        2.10236  -0.00016   0.00021  -0.00097  -0.00076   2.10160
   A14        2.04551  -0.00004  -0.00043   0.00069   0.00026   2.04577
   A15        2.13532   0.00020   0.00022   0.00028   0.00049   2.13582
   A16        2.09119   0.00015   0.00012   0.00028   0.00040   2.09158
   A17        2.09339  -0.00006   0.00017  -0.00043  -0.00026   2.09313
   A18        2.09861  -0.00008  -0.00029   0.00016  -0.00014   2.09848
   A19        2.05235   0.00163   0.00283   0.00030   0.00299   2.05534
   A20        2.05239   0.00145   0.00258   0.00016   0.00260   2.05499
   A21        2.17844  -0.00308  -0.00540  -0.00037  -0.00591   2.17253
   A22        1.94748  -0.00070  -0.00249   0.00074  -0.00175   1.94574
    D1        0.00004  -0.00001  -0.00000  -0.00034  -0.00034  -0.00030
    D2       -3.14157  -0.00001  -0.00000  -0.00018  -0.00018   3.14144
    D3       -3.14158  -0.00000  -0.00000  -0.00015  -0.00015   3.14146
    D4        0.00000  -0.00000  -0.00000   0.00001   0.00001   0.00001
    D5       -0.00002   0.00000   0.00000   0.00016   0.00016   0.00014
    D6        3.14156   0.00001   0.00000   0.00017   0.00017  -3.14145
    D7        3.14159  -0.00000   0.00000  -0.00003  -0.00003   3.14156
    D8       -0.00000  -0.00000   0.00000  -0.00002  -0.00002  -0.00003
    D9       -0.00003   0.00001   0.00001   0.00033   0.00033   0.00030
   D10        3.14158   0.00000   0.00000   0.00015   0.00015  -3.14146
   D11        3.14157   0.00001   0.00000   0.00017   0.00017  -3.14144
   D12        0.00000  -0.00000   0.00000  -0.00001  -0.00001  -0.00001
   D13       -0.00181   0.00025   0.00044   0.01443   0.01487   0.01306
   D14       -3.13999  -0.00025  -0.00047  -0.01447  -0.01494   3.12826
   D15        3.13977   0.00025   0.00044   0.01458   0.01502  -3.12839
   D16        0.00159  -0.00025  -0.00047  -0.01431  -0.01478  -0.01319
   D17        0.00001  -0.00000  -0.00000  -0.00014  -0.00015  -0.00014
   D18       -3.14158  -0.00000  -0.00000  -0.00016  -0.00016   3.14144
   D19        3.14158   0.00000  -0.00000   0.00004   0.00004  -3.14156
   D20       -0.00001   0.00000  -0.00000   0.00003   0.00003   0.00002
   D21        0.00000  -0.00000   0.00000  -0.00002  -0.00002  -0.00002
   D22       -3.14158  -0.00000  -0.00000  -0.00001  -0.00001  -3.14159
   D23       -3.14159  -0.00000   0.00000  -0.00001  -0.00001   3.14158
   D24        0.00001   0.00000  -0.00000   0.00001   0.00000   0.00001
   D25        0.00000   0.00000  -0.00000   0.00001   0.00001   0.00002
   D26       -3.14158  -0.00000  -0.00000   0.00001   0.00001  -3.14158
   D27        3.14159   0.00000   0.00000  -0.00000  -0.00000   3.14159
   D28        0.00000  -0.00000   0.00000  -0.00001  -0.00001  -0.00001
   D29       -3.14153  -0.00000   0.00001  -0.00003  -0.00002  -3.14155
   D30        0.00007  -0.00000   0.00001  -0.00001  -0.00000   0.00006
         Item               Value     Threshold  Converged?
 Maximum Force            0.003080     0.000450     NO 
 RMS     Force            0.000639     0.000300     NO 
 Maximum Displacement     0.015679     0.001800     NO 
 RMS     Displacement     0.004402     0.001200     NO 
 Predicted change in Energy=-3.362390D-05
 GradGradGradGradGradGradGradGradGradGradGradGradGradGradGradGradGradGrad

                          Input orientation:                          
 ---------------------------------------------------------------------
 Center     Atomic      Atomic             Coordinates (Angstroms)
 Number     Number       Type             X           Y           Z
 ---------------------------------------------------------------------
      1          6           0        0.029889   -1.208134   -0.002426
      2          6           0       -0.645739   -0.001968   -0.003522
      3          6           0        0.036805    1.206518   -0.002337
      4          6           0        1.412975    1.205484   -0.000388
      5          6           0        2.103081   -0.003838    0.000539
      6          6           0        1.410752   -1.209019   -0.000471
      7          1           0       -0.518735   -2.128073   -0.003251
      8          1           0        1.946879   -2.141732    0.000264
      9          7           0       -2.095557   -0.000801   -0.005772
     10          8           0       -2.653067   -1.057709    0.007211
     11          8           0       -2.650744    1.056719    0.007418
     12          1           0       -0.510791    2.127113   -0.003101
     13          1           0        1.969536    2.122860    0.000429
     14          8           0        3.442332    0.054577    0.002440
     15          1           0        3.827377   -0.811058    0.002914
 ---------------------------------------------------------------------
                    Distance matrix (angstroms):
                    1          2          3          4          5
     1  C    0.000000
     2  C    1.382501   0.000000
     3  C    2.414661   1.387914   0.000000
     4  C    2.781813   2.386683   1.376172   0.000000
     5  C    2.397595   2.748823   2.394675   1.392375   0.000000
     6  C    1.380864   2.384562   2.778948   2.414504   1.389885
     7  H    1.071111   2.129895   3.380551   3.852807   3.374360
     8  H    2.132244   3.361588   3.854759   3.389530   2.143592
     9  N    2.444419   1.449820   2.450428   3.710115   4.198644
    10  O    2.687187   2.268054   3.515996   4.653472   4.871512
    11  O    3.509337   2.267374   2.691738   4.066449   4.870696
    12  H    3.378788   2.133354   1.071148   2.133139   3.372432
    13  H    3.854576   3.369655   2.138958   1.073004   2.130887
    14  O    3.638575   4.088466   3.595081   2.332999   1.340526
    15  H    3.818195   4.545705   4.294074   3.145757   1.903892
                    6          7          8          9         10
     6  C    0.000000
     7  H    2.137192   0.000000
     8  H    1.075819   2.465655   0.000000
     9  N    3.708641   2.647954   4.574376   0.000000
    10  O    4.066642   2.387711   4.725956   1.195006   0.000000
    11  O    4.650740   3.832554   5.600739   1.194468   2.114429
    12  H    3.849950   4.255194   4.925768   2.653207   3.838300
    13  H    3.378410   4.925641   4.264652   4.586388   5.611107
    14  O    2.392488   4.522615   2.657095   5.538172   6.196055
    15  H    2.449176   4.541284   2.303686   5.978105   6.485138
                   11         12         13         14         15
    11  O    0.000000
    12  H    2.392751   0.000000
    13  H    4.741698   2.480333   0.000000
    14  O    6.174940   4.463476   2.539080   0.000000
    15  H    6.742007   5.239521   3.472672   0.947409   0.000000
 Stoichiometry    C6H5NO3
 Framework group  C1[X(C6H5NO3)]
 Deg. of freedom    39
 Full point group                 C1      NOp   1
 Largest Abelian subgroup         C1      NOp   1
 Largest concise Abelian subgroup C1      NOp   1
                         Standard orientation:                         
 ---------------------------------------------------------------------
 Center     Atomic      Atomic             Coordinates (Angstroms)
 Number     Number       Type             X           Y           Z
 ---------------------------------------------------------------------
      1          6           0        0.007647   -1.201628    0.002978
      2          6           0        0.690754    0.000318    0.004394
      3          6           0        0.015731    1.213020    0.002955
      4          6           0       -1.360418    1.220536    0.000426
      5          6           0       -2.058023    0.015523   -0.000826
      6          6           0       -1.373194   -1.193935    0.000441
      7          1           0        0.550546   -2.124957    0.004009
      8          1           0       -1.915105   -2.123299   -0.000547
      9          7           0        2.140550   -0.007521    0.007255
     10          8           0        2.691490   -1.067872   -0.005523
     11          8           0        2.702301    1.046529   -0.005670
     12          1           0        0.569035    2.130196    0.003976
     13          1           0       -1.911269    2.141351   -0.000600
     14          8           0       -3.396884    0.082257   -0.003291
     15          1           0       -3.787298   -0.780969   -0.003952
 ---------------------------------------------------------------------
 Rotational constants (GHZ):           4.0521295           0.8353723           0.6925950
 Standard basis: GTBas1 (6D, 7F)
 There are   160 symmetry adapted cartesian basis functions of A   symmetry.
 There are   160 symmetry adapted basis functions of A   symmetry.
   160 basis functions,   300 primitive gaussians,   160 cartesian basis functions
    36 alpha electrons       36 beta electrons
       nuclear repulsion energy       501.0852417015 Hartrees.
 NAtoms=   15 NActive=   15 NUniq=   15 SFac= 1.00D+00 NAtFMM=   60 NAOKFM=F Big=F
 Integral buffers will be    131072 words long.
 Raffenetti 1 integral format.
 Two-electron integral symmetry is turned on.
 One-electron integrals computed using PRISM.
 NBasis=   160 RedAO= T EigKep=  3.95D-04  NBF=   160
 NBsUse=   160 1.00D-06 EigRej= -1.00D+00 NBFU=   160
 Initial guess from the checkpoint file:  "/home/artemiy/opt/gaussian/scr/Gau-46393.chk"
 B after Tr=    -0.000000   -0.000000    0.000000
         Rot=    1.000000    0.000016   -0.000023   -0.000013 Ang=   0.00 deg.
 Keep R1 ints in memory in canonical form, NReq=85041234.
 Requested convergence on RMS density matrix=1.00D-08 within 128 cycles.
 Requested convergence on MAX density matrix=1.00D-06.
 Requested convergence on             energy=1.00D-06.
 No special actions if energy rises.
 SCF Done:  E(RHF) =  -509.032451092     A.U. after   11 cycles
            NFock= 11  Conv=0.52D-08     -V/T= 2.0017
 Calling FoFJK, ICntrl=      2127 FMM=F ISym2X=0 I1Cent= 0 IOpClX= 0 NMat=1 NMatS=1 NMatT=0.
 ***** Axes restored to original set *****
 -------------------------------------------------------------------
 Center     Atomic                   Forces (Hartrees/Bohr)
 Number     Number              X              Y              Z
 -------------------------------------------------------------------
      1        6          -0.000098928    0.000022787   -0.000188164
      2        6           0.000374378   -0.000144648   -0.001246550
      3        6           0.000196586    0.000055393   -0.000187221
      4        6          -0.000232875   -0.000078146    0.000054262
      5        6          -0.000140486   -0.000290289   -0.000011180
      6        6          -0.000144846    0.000211192    0.000059356
      7        1          -0.000021115   -0.000010308   -0.000012096
      8        1          -0.000012047   -0.000044841    0.000019518
      9        7           0.000844277   -0.000037923    0.005344570
     10        8          -0.000374375   -0.000514460   -0.001920828
     11        8          -0.000374780    0.000533869   -0.001918386
     12        1          -0.000007405   -0.000003391   -0.000009710
     13        1           0.000034418    0.000042850    0.000019626
     14        8           0.000060445    0.000593228   -0.000004881
     15        1          -0.000103246   -0.000335314    0.000001683
 -------------------------------------------------------------------
 Cartesian Forces:  Max     0.005344570 RMS     0.000943259

 GradGradGradGradGradGradGradGradGradGradGradGradGradGradGradGradGradGrad
 Berny optimization.
 Using GEDIIS/GDIIS optimizer.
 FormGI is forming the generalized inverse of G from B-inverse, IUseBI=4.
 Internal  Forces:  Max     0.001942264 RMS     0.000493343
 Search for a local minimum.
 Step number   4 out of a maximum of   77
 All quantities printed in internal units (Hartrees-Bohrs-Radians)
 Mixed Optimization -- En-DIIS/RFO-DIIS
 Swapping is turned off.
 Update second derivatives using D2CorX and points    1    2    3    4
 DE=  2.35D-05 DEPred=-3.36D-05 R=-6.98D-01
 Trust test=-6.98D-01 RLast= 3.16D-02 DXMaxT set to 1.50D-01
 ITU= -1  1  1  0
     Eigenvalues ---    0.01238   0.01915   0.02145   0.02189   0.02236
     Eigenvalues ---    0.02239   0.02281   0.02287   0.02317   0.02329
     Eigenvalues ---    0.02405   0.06366   0.14848   0.16000   0.16002
     Eigenvalues ---    0.16010   0.16665   0.17936   0.22056   0.23378
     Eigenvalues ---    0.24461   0.25000   0.25011   0.25235   0.35864
     Eigenvalues ---    0.36035   0.36111   0.36331   0.40108   0.43447
     Eigenvalues ---    0.45301   0.46739   0.47056   0.48026   0.50924
     Eigenvalues ---    0.54957   0.56592   0.92683   0.98000
 En-DIIS/RFO-DIIS/Sim-DIIS IScMMF=       -3 using points:     4    3
 RFO step:  Lambda=-1.23333123D-04.
 DidBck=T Rises=T En-DIIS coefs:    0.43506    0.56494
 Iteration  1 RMS(Cart)=  0.00460754 RMS(Int)=  0.00005021
 Iteration  2 RMS(Cart)=  0.00004999 RMS(Int)=  0.00001992
 Iteration  3 RMS(Cart)=  0.00000000 RMS(Int)=  0.00001992
 Variable       Old X    -DE/DX   Delta X   Delta X   Delta X     New X
                                 (Linear)    (Quad)   (Total)
    R1        2.61255  -0.00026   0.00012  -0.00172  -0.00160   2.61095
    R2        2.60946  -0.00019  -0.00068   0.00333   0.00265   2.61210
    R3        2.02411   0.00002  -0.00050   0.00133   0.00083   2.02493
    R4        2.62278  -0.00004  -0.00023  -0.00019  -0.00042   2.62235
    R5        2.73976  -0.00010  -0.00369   0.01427   0.01058   2.75035
    R6        2.60059  -0.00034  -0.00030   0.00163   0.00133   2.60192
    R7        2.02418   0.00000  -0.00047   0.00125   0.00078   2.02496
    R8        2.63121  -0.00009  -0.00029   0.00129   0.00100   2.63221
    R9        2.02768   0.00005  -0.00036   0.00073   0.00037   2.02805
   R10        2.62650  -0.00007   0.00010  -0.00083  -0.00073   2.62577
   R11        2.53323  -0.00003  -0.00049   0.00169   0.00120   2.53443
   R12        2.03300   0.00003  -0.00034   0.00066   0.00032   2.03333
   R13        2.25823   0.00061  -0.00008  -0.00189  -0.00197   2.25626
   R14        2.25722   0.00063  -0.00008  -0.00186  -0.00194   2.25527
   R15        1.79034   0.00026  -0.00109   0.00189   0.00080   1.79114
    A1        2.08204  -0.00016  -0.00012  -0.00012  -0.00024   2.08180
    A2        2.09325   0.00007  -0.00031   0.00204   0.00173   2.09497
    A3        2.10790   0.00009   0.00043  -0.00192  -0.00149   2.10641
    A4        2.11686   0.00021   0.00026   0.00074   0.00101   2.11787
    A5        2.08220  -0.00012  -0.00023  -0.00005  -0.00028   2.08192
    A6        2.08412  -0.00009  -0.00004  -0.00069  -0.00073   2.08339
    A7        2.08418  -0.00008  -0.00009  -0.00079  -0.00088   2.08330
    A8        2.09085   0.00003  -0.00021   0.00172   0.00151   2.09236
    A9        2.10816   0.00005   0.00029  -0.00093  -0.00063   2.10752
   A10        2.09011  -0.00005  -0.00026   0.00098   0.00072   2.09083
   A11        2.11537   0.00003   0.00003  -0.00067  -0.00064   2.11473
   A12        2.07771   0.00002   0.00023  -0.00031  -0.00008   2.07762
   A13        2.10160   0.00007   0.00043  -0.00118  -0.00075   2.10085
   A14        2.04577  -0.00016  -0.00015   0.00049   0.00034   2.04611
   A15        2.13582   0.00009  -0.00028   0.00069   0.00041   2.13622
   A16        2.09158   0.00000  -0.00022   0.00036   0.00013   2.09172
   A17        2.09313  -0.00004   0.00015  -0.00078  -0.00063   2.09249
   A18        2.09848   0.00003   0.00008   0.00042   0.00050   2.09898
   A19        2.05534   0.00012  -0.00169   0.00165  -0.00013   2.05521
   A20        2.05499   0.00010  -0.00147   0.00129  -0.00027   2.05472
   A21        2.17253  -0.00012   0.00334  -0.00253   0.00071   2.17324
   A22        1.94574  -0.00041   0.00099   0.00011   0.00110   1.94683
    D1       -0.00030   0.00008   0.00019   0.00018   0.00037   0.00007
    D2        3.14144   0.00005   0.00010   0.00010   0.00020  -3.14155
    D3        3.14146   0.00003   0.00008   0.00008   0.00017  -3.14156
    D4        0.00001   0.00000  -0.00000   0.00001   0.00000   0.00001
    D5        0.00014  -0.00004  -0.00009  -0.00008  -0.00017  -0.00003
    D6       -3.14145  -0.00004  -0.00010  -0.00008  -0.00018   3.14156
    D7        3.14156   0.00001   0.00002   0.00001   0.00003  -3.14159
    D8       -0.00003   0.00001   0.00001   0.00001   0.00002  -0.00000
    D9        0.00030  -0.00008  -0.00019  -0.00018  -0.00037  -0.00007
   D10       -3.14146  -0.00003  -0.00008  -0.00008  -0.00017   3.14156
[...]
     4  C    0.009389  -0.007849  -0.006435  -0.000714   0.151352  -0.078256
     5  C    0.012844  -0.127108   0.009478   0.007898   0.017609   0.002809
     6  C   -0.060296   0.483355  -0.042509   0.168793  -0.006977   0.031420
     7  H    0.423101  -0.010108  -0.021778  -0.010504   0.005212  -0.000822
     8  H   -0.010108   0.525616  -0.000289   0.002834   0.000122   0.000920
     9  N   -0.021778  -0.000289   6.533922   0.379992   0.389733  -0.021140
    10  O   -0.010504   0.002834   0.379992   7.842666  -0.051497   0.005160
    11  O    0.005212   0.000122   0.389733  -0.051497   7.831063  -0.010545
    12  H   -0.000822   0.000920  -0.021140   0.005160  -0.010545   0.425058
    13  H    0.000393   0.001259   0.000554   0.000483   0.002293  -0.006015
    14  O    0.000511  -0.018844   0.000354  -0.000026  -0.000043  -0.001068
    15  H   -0.000030   0.011061  -0.000130   0.000075   0.000095   0.000575
              13         14         15
     1  C   -0.008109  -0.010961  -0.049464
     2  C   -0.027835   0.031342  -0.004755
     3  C   -0.032489  -0.066911   0.013904
     4  C    0.483388  -0.355217   0.016959
     5  C   -0.047056   0.442599   0.048954
     6  C   -0.009997  -0.006522  -0.058056
     7  H    0.000393   0.000511  -0.000030
     8  H    0.001259  -0.018844   0.011061
     9  N    0.000554   0.000354  -0.000130
    10  O    0.000483  -0.000026   0.000075
    11  O    0.002293  -0.000043   0.000095
    12  H   -0.006015  -0.001068   0.000575
    13  H    0.464595  -0.013973   0.000373
    14  O   -0.013973   8.091083   0.265825
    15  H    0.000373   0.265825   0.462772
 Mulliken charges:
               1
     1  C   -0.039270
     2  C   -0.050599
     3  C   -0.029632
     4  C   -0.284671
     5  C   -0.237047
     6  C    0.166108
     7  H    0.253184
     8  H    0.133204
     9  N    0.013563
    10  O   -0.154650
    11  O   -0.148050
    12  H    0.252030
    13  H    0.192135
    14  O   -0.358149
    15  H    0.291842
 Sum of Mulliken charges =  -0.00000
 Mulliken charges with hydrogens summed into heavy atoms:
               1
     1  C    0.213915
     2  C   -0.050599
     3  C    0.222398
     4  C   -0.092536
     5  C   -0.237047
     6  C    0.299312
     9  N    0.013563
    10  O   -0.154650
    11  O   -0.148050
    14  O   -0.066307
 Electronic spatial extent (au):  <R**2>=           1538.8970
 Charge=             -0.0000 electrons
 Dipole moment (field-independent basis, Debye):
    X=             -5.4429    Y=             -1.3918    Z=             -0.0000  Tot=              5.6180
 Quadrupole moment (field-independent basis, Debye-Ang):
   XX=            -67.8005   YY=            -51.5124   ZZ=            -59.3411
   XY=              6.2723   XZ=              0.0003   YZ=              0.0003
 Traceless Quadrupole moment (field-independent basis, Debye-Ang):
   XX=             -8.2492   YY=              8.0389   ZZ=              0.2102
   XY=              6.2723   XZ=              0.0003   YZ=              0.0003
 Octapole moment (field-independent basis, Debye-Ang**2):
  XXX=            -60.5532  YYY=             -0.5435  ZZZ=             -0.0002  XYY=            -16.6654
  XXY=            -25.3756  XXZ=             -0.0003  XZZ=              7.7343  YZZ=             -0.0656
  YYZ=              0.0001  XYZ=             -0.0007
 Hexadecapole moment (field-independent basis, Debye-Ang**3):
 XXXX=          -1520.7989 YYYY=           -350.0060 ZZZZ=            -61.6758 XXXY=            104.7840
 XXXZ=              0.0119 YYYX=              4.8863 YYYZ=             -0.0043 ZZZX=              0.0070
 ZZZY=             -0.0079 XXYY=           -296.8680 XXZZ=           -252.9550 YYZZ=            -82.4236
 XXYZ=             -0.0028 YYXZ=              0.0023 ZZXY=              0.6223
 N-N= 4.944571495408D+02 E-N=-2.183777016940D+03  KE= 5.082734196085D+02
 1\1\GINC-ARTEMIY-VIRTUALBOX\SP\RMP2\GTMP2large\C6H5N1O3\ARTEMIY\04-Feb
 -2023\0\\#N Geom=AllCheck Guess=TCheck SCRF=Check MP2=FrzG3/GTMP2Large
 \\Title Card Required\\0,1\C,0,0.027591358,-1.2178373368,0.0000516522\
 C,0,-0.6437443597,-0.0009790644,0.0000056359\C,0,0.0323761137,1.216644
 6266,-0.0000539648\C,0,1.4201356538,1.210412957,-0.000067606\C,0,2.116
 1618123,-0.0023746044,-0.0000220672\C,0,1.4184330836,-1.2131735223,0.0
 000372968\H,0,-0.5336426271,-2.1452744238,0.0000972849\H,0,1.959213392
 ,-2.1578501265,0.0000728542\N,0,-2.1071946715,-0.0008395644,0.00002032
 82\O,0,-2.68502132,-1.1000920955,0.0000694969\O,0,-2.6839910205,1.0988
 515,-0.0000172663\H,0,-0.5273082933,2.144990977,-0.0000884275\H,0,1.98
 50488319,2.1375806893,-0.0001134632\O,0,3.4804659867,0.0717675338,-0.0
 000392489\H,0,3.8464664762,-0.8308877968,-0.0000049781\\Version=ES64L-
 G16RevA.03\State=1-A\HF=-509.1988221\MP2=-511.0486202\RMSD=1.610e-09\P
 G=C01 [X(C6H5N1O3)]\\@


 KEEP CLOSE TO NATURES HEART, YOURSELF;
 AND BREAK CLEAR AWAY, ONCE IN A WHILE, AND
 CLIMB A MOUNTAIN OR SPEND A WEEK IN THE
 WOODS.  WASH YOUR SPIRIT CLEAN...
                                         -- JOHN MUIR
 Diagonal vibrational polarizability:
        0.0000000       0.0000000       0.0000000
 
 Temperature=              298.150000 Pressure=                      1.000000
 E(ZPE)=                     0.103937 E(Thermal)=                    0.112062
 E(QCISD(T))=             -510.590602 E(Empiric)=                   -0.241254
 DE(MP2)=                   -0.546359
 G3MP2(0 K)=              -511.274279 G3MP2 Energy=               -511.266154
 G3MP2 Enthalpy=          -511.265210 G3MP2 Free Energy=          -511.307644
 1\1\GINC-ARTEMIY-VIRTUALBOX\Mixed\G3MP2\G3MP2\C6H5N1O3\ARTEMIY\04-Feb-
 2023\0\\# g3mp2 geom=gic\\Title Card Required\\0,1\C,0,0.027591358,-1.
 2178373368,0.0000516522\C,0,-0.6437443597,-0.0009790644,0.0000056359\C
 ,0,0.0323761137,1.2166446266,-0.0000539648\C,0,1.4201356538,1.21041295
 7,-0.000067606\C,0,2.1161618123,-0.0023746044,-0.0000220672\C,0,1.4184
 330836,-1.2131735223,0.0000372968\H,0,-0.5336426271,-2.1452744238,0.00
 00972849\H,0,1.959213392,-2.1578501265,0.0000728542\N,0,-2.1071946715,
 -0.0008395644,0.0000203282\O,0,-2.68502132,-1.1000920955,0.0000694969\
 O,0,-2.6839910205,1.0988515,-0.0000172663\H,0,-0.5273082933,2.14499097
 7,-0.0000884275\H,0,1.9850488319,2.1375806893,-0.0001134632\O,0,3.4804
 659867,0.0717675338,-0.0000392489\H,0,3.8464664762,-0.8308877968,-0.00
 00049781\\Version=ES64L-G16RevA.03\State=1-A\MP2/G3Bas1=-510.5022609\Q
 CISD(T)/G3Bas1=-510.5906024\MP2/GTMP2Large=-511.0486202\G3MP2=-511.274
 2791\FreqCoord=0.0566149641,-2.2834043032,0.0001042171,-1.2188791991,-
 0.0039353229,0.0000058231,0.0700803431,2.2802020375,-0.0001108945,2.67
 0022385,2.2783318962,-0.0001356237,3.973741141,-0.0070542603,-0.000034
 5231,2.6657371709,-2.2845715984,0.0000870802,-0.9805891741,-4.02170495
 76,0.0001919009,3.6788855483,-4.0472880901,0.0001688651,-3.9584104191,
 -0.001780942,0.0000291455,-5.0128354601,-1.9995222461,0.0000447561,-5.
 0084103613,1.9971586241,0.0000613546,-0.9652609205,4.0196379734,-0.000
 1838985,3.7220904919,4.0119348066,-0.0002316342,6.5045396908,0.1043610
 343,-0.0000576484,7.2291598029,-1.5334724222,-0.0000380795\PG=C01 [X(C
 6H5N1O3)]\NImag=0\\0.79636544,0.05320848,0.83740602,-0.00000626,-0.000
 03188,0.17431468,-0.18215132,0.12869240,-0.00000613,0.68750840,0.02931
 810,-0.32887779,0.00001201,-0.00401516,0.84639609,-0.00000111,0.000011
 02,-0.07286562,-0.00000458,-0.00002915,0.15095452,0.09366563,-0.041711
 74,0.00000150,-0.18021411,-0.02494560,0.00000230,0.80670200,0.04117228
 ,-0.07183528,0.00000352,-0.12401813,-0.31854389,0.00001244,-0.05867918
 ,0.82754026,-0.00000277,0.00000420,0.00813559,0.00000729,0.00001168,-0
 .07232603,-0.00000310,-0.00003058,0.17448951,-0.07827113,0.05165957,-0
 .00000191,-0.03673144,-0.10910134,0.00000551,-0.40222390,0.04905116,0.
 00000091,0.82151363,0.04183173,-0.03046644,0.00000112,-0.02013129,0.05
 900008,-0.00000216,-0.05679474,-0.17011591,0.00000522,0.06131200,0.809
 18575,-0.00000134,0.00000083,-0.00265595,0.00000133,-0.00000168,0.0071
 8153,0.00000575,0.00000459,-0.07100561,-0.00000921,-0.00003321,0.14908
 915,-0.03481890,-0.03699639,0.00000223,0.01666710,0.00243390,-0.000000
 27,-0.03897889,0.03309757,-0.00000142,-0.17704412,0.11480583,-0.000004
 93,0.82517297,-0.12831299,0.07266401,-0.00000239,0.00363934,-0.1248546
 3,0.00000548,0.12270478,0.07343540,-0.00000453,0.00495103,-0.31617729,
 0.00001145,-0.00932516,0.79008144,0.00000652,-0.00000336,-0.00048107,-
 0.00000028,0.00000587,-0.00560476,-0.00000570,-0.00000389,-0.00061738,
 0.00000058,0.00001025,-0.08195639,-0.00000522,-0.00002726,0.19858236,-
 0.38718310,-0.04998543,0.00000424,-0.03777332,0.11065450,-0.00000485,-
 0.07884615,-0.05194191,0.00000312,0.09467598,-0.03577012,0.00000098,-0
 .19148506,-0.00138951,0.00000097,0.80090073,0.05667917,-0.16570965,0.0
 0000400,0.01808523,0.05598479,-0.00000227,-0.03865353,-0.02935530,0.00
 000169,0.03312368,-0.05496335,0.00000293,-0.11700541,-0.31589604,0.000
 01236,-0.05249878,0.80551365,-0.00000067,0.00000514,-0.07120649,-0.000
 00060,-0.00000337,0.00763159,0.00000247,0.00000161,-0.00302230,-0.0000
 0227,0.00000352,0.00972124,0.00000680,0.00001156,-0.08007019,-0.000001
 78,-0.00003242,0.14521662,-0.15363972,-0.14182890,0.00000750,0.0170090
 3,0.01398375,-0.00000077,-0.00226461,0.00408717,-0.00000011,-0.0009098
 1,0.00068923,-0.00000004,-0.00585321,0.00142358,0.,-0.00910821,-0.0304
 5676,0.00000153,0.15754965,-0.13876301,-0.31432363,0.00001320,-0.01825
 941,-0.01936980,0.00000140,0.00452929,-0.00371113,0.00000040,0.0005636
 7,0.00050895,-0.00000008,0.00191509,0.00093645,0.00000039,0.00269688,0
 .00872939,-0.00000013,0.15237891,0.32544405,0.00000709,0.00001324,-0.0
 5187544,0.00000113,0.00000107,0.00795018,-0.00000018,0.00000045,0.0057
 7422,-0.00000006,-0.00000006,-0.00103238,0.,0.00000037,0.00964189,0.00
 000005,0.00000020,0.00685324,-0.00000801,-0.00001456,0.03377945,-0.011
 98096,0.03412524,-0.00000161,-0.00552317,-0.00202783,0.00000012,-0.001
 34073,-0.00084583,0.00000005,-0.00139264,-0.00381843,0.00000023,0.0114
 6668,-0.01698451,0.00000078,-0.14622975,0.12975907,-0.00000573,0.00133
 316,-0.00043293,-0.00000001,0.15044361,-0.00205324,0.00613964,-0.00000
 015,-0.00077441,0.00194841,0.00000031,-0.00143853,-0.00007669,-0.00000
 001,-0.00433734,-0.00387171,0.00000052,0.02181905,-0.02110140,0.000001
 11,0.12960843,-0.30337332,0.00001241,0.00038902,0.00084536,-0.00000031
 ,-0.14158234,0.31775736,0.00000023,-0.00000040,0.00297502,0.00000017,0
 .00000032,0.00788782,0.00000007,-0.00000004,-0.00053511,0.00000026,0.0
 0000049,0.00603215,-0.00000106,0.00000136,0.00435056,-0.00000584,0.000
 01245,-0.03926009,-0.00000004,-0.00000028,-0.00535311,0.00000623,-0.00
 001366,0.02759519,-0.04203284,0.02064544,-0.00000025,-0.19282316,-0.00
 139729,0.00000032,-0.04084285,-0.01955395,0.00000086,0.01251421,-0.011
 35023,0.00000045,-0.01710663,-0.00202103,0.00000015,0.01352531,0.01226
 577,-0.00000045,0.00094361,-0.00283280,-0.00000014,0.00046250,-0.00067
 784,0.00000002,0.89057484,0.03411299,0.02049920,-0.00000141,-0.0002072
 2,-0.15084562,0.00000256,-0.03368748,0.02108841,-0.00000099,-0.0060531
 1,-0.01007324,0.00000082,0.00008143,-0.00483886,0.00000022,0.00597550,
 -0.00994836,0.00000078,0.00133925,-0.00495331,0.00000005,0.00233862,0.
 00027382,0.00000004,-0.00132178,1.24380512,-0.00000184,-0.00000104,-0.
 00571005,0.00000184,0.00000265,-0.09456936,0.00000223,-0.00000067,-0.0
 0589608,0.,0.00000089,0.00898273,0.00000012,-0.00000005,-0.00142105,-0
 .00000004,0.00000084,0.00956885,0.00000004,-0.00000021,-0.00536627,-0.
 00000010,0.00000007,0.00136787,-0.00000999,0.00000067,0.30026972,-0.00
 328564,-0.00285450,-0.00000012,-0.03924035,-0.05818326,0.00000114,-0.0
 0316634,0.00898449,-0.00000050,-0.00536110,0.00056636,0.00000015,0.005
 15452,-0.00260598,0.00000014,-0.00106148,-0.00266214,0.00000018,-0.005
 73097,-0.00079342,-0.00000006,-0.00030918,0.00027934,-0.00000002,-0.32
 145488,-0.23071912,0.00000298,0.31140011,0.00800193,-0.01097904,0.0000
 0055,-0.03358752,-0.00596048,0.00000038,0.00180715,0.00214071,0.000000
 08,-0.00254973,0.00351198,-0.00000006,0.00413132,-0.00086967,0.0000000
 1,-0.00292577,0.00148172,-0.00000005,0.00073279,0.00448710,-0.00000018
 ,-0.00041013,0.00008106,0.,-0.25337214,-0.54825421,0.00000357,0.284117
 83,0.72049098,-0.00000005,0.00000045,0.00195188,0.00000046,0.00000049,
 0.02403523,-0.00000018,0.00000009,0.00428746,0.00000015,-0.00000022,-0
 .00118308,-0.00000016,0.00000012,0.00024072,0.,-0.00000016,-0.00072346
 ,-0.00000007,-0.00000016,-0.00001253,0.00000002,0.,-0.00007350,0.00000
 339,0.00000382,-0.10141733,-0.00000321,-0.00000335,0.03756261,-0.00312
 497,-0.00897451,0.00000071,-0.03879832,0.05897852,0.00000112,-0.003330
 97,0.00257387,0.00000026,-0.00079356,0.00239297,-0.00000016,0.00495019
 ,0.00342100,-0.00000022,-0.00553833,-0.00080490,-0.00000013,0.00073792
 ,-0.00010980,0.00000013,-0.00113419,0.00009169,-0.00000003,-0.32171904
 ,0.23174778,0.00000489,0.06844389,-0.00423906,-0.00000049,0.31102114,-
 0.00186780,0.00236025,0.00000006,0.03340698,-0.00692813,-0.00000098,-0
 .00761087,-0.01075540,0.00000077,0.00269257,0.00168120,-0.00000008,-0.
 00388226,-0.00170422,0.00000009,0.00263811,0.00373926,-0.00000008,-0.0
 0189543,0.00195807,-0.00000027,0.00022341,-0.00006313,-0.00000002,0.25
 493249,-0.55186680,-0.00000643,0.00374374,-0.16851245,-0.00000105,-0.2
 8505142,0.72456555,0.00000051,0.00000027,0.00422356,0.00000031,-0.0000
 0100,0.02415628,0.00000013,0.00000031,0.00190866,0.00000007,-0.0000001
 8,-0.00066261,0.00000004,0.00000013,0.00021999,-0.00000011,-0.00000028
 ,-0.00127481,-0.00000004,0.00000003,0.00049527,0.00000003,-0.00000003,
 -0.00056472,0.00000584,-0.00000672,-0.10133965,-0.00000058,-0.00000062
 ,0.03543947,-0.00000637,0.00000824,0.03745822,-0.00224572,-0.00415321,
 0.00000024,0.01686281,-0.01416740,0.00000066,-0.15350267,0.14144470,-0
 .00000605,-0.00896728,0.03088660,-0.00000132,-0.00566833,-0.00120348,0
 .00000023,-0.00098271,-0.00068915,0.00000004,0.00083793,-0.00097144,0.
 00000006,0.00003626,0.00004046,0.,0.00092615,-0.00130152,-0.00000012,0
 .00073487,0.00186680,0.,-0.00564042,-0.00074507,0.00000021,0.15748806,
 -0.00448358,-0.00371753,0.00000044,0.01795050,-0.01939894,0.00000110,0
 .13865596,-0.31457740,0.00001124,-0.00250208,0.00878411,-0.00000008,-0
 .00187313,0.00087355,0.00000045,-0.00055444,0.00057047,-0.00000006,0.0
 0095749,-0.00093405,0.00000007,0.00007211,0.00000348,-0.00000003,0.002
 85983,-0.00501003,-0.00000027,0.00008757,0.00195276,0.00000001,0.00080
 543,0.00450315,-0.00000014,-0.15220467,0.32578694,0.00000029,0.0000005
 0,0.00547923,-0.00000115,0.00000130,0.00748033,-0.00000569,0.00001118,
 -0.05226825,0.00000023,-0.00000027,0.00721626,0.00000027,0.00000045,0.
 01032739,0.00000005,-0.00000006,-0.00093820,-0.00000007,0.00000008,0.0
 0048077,0.,-0.00000003,-0.00055338,-0.00000006,0.00000011,-0.00491022,
 -0.00000011,-0.00000029,0.00043548,0.00000019,-0.00000019,-0.00003875,
 0.00000619,-0.00001238,0.03393601,-0.00113614,0.00078498,-0.00000004,-
 0.00523412,0.00205971,0.00000007,-0.01157385,-0.03227437,0.00000171,-0
 .15433183,-0.13977800,0.00000800,0.01423856,0.01722651,-0.00000093,-0.
 00188664,0.00358698,-0.00000010,0.00004327,-0.00007055,0.,0.00069718,0
 .00095207,-0.00000005,0.00023793,-0.00217535,0.00000008,-0.00094470,-0
 .00015719,0.,-0.00019270,0.00036242,0.,0.00131255,0.00041045,-0.000000
 09,0.15691037,0.00146514,-0.00004121,-0.00000004,0.00102539,0.00166013
 ,0.00000032,0.00270371,0.00788743,-0.00000026,-0.13742958,-0.30547174,
 0.00001438,-0.02076172,-0.02140263,0.00000152,0.00407051,-0.00387382,0
 .00000044,-0.00004668,0.00001082,-0.00000003,-0.00079577,-0.00109489,0
 .00000005,0.00059808,0.00041274,0.00000005,0.00002685,-0.00003431,-0.0
 0000003,-0.00021303,0.00005583,0.,-0.00049775,0.00077337,-0.00000032,0
 .15039195,0.31810312,-0.00000005,-0.00000006,-0.00064172,0.00000005,0.
 00000032,0.00848721,-0.00000001,0.00000007,0.00332809,0.00000794,0.000
 01436,-0.04208052,0.00000088,0.00000121,0.00549183,-0.00000014,0.00000
 041,0.00580039,0.,-0.00000002,-0.00052539,0.00000003,0.00000004,-0.000
 10988,0.,0.00000008,0.00130708,0.00000002,-0.00000002,-0.00057046,0.00
 000003,0.,-0.00005618,-0.00000006,-0.00000031,-0.00575007,-0.00000865,
 -0.00001573,0.02972585,0.01139359,-0.00388839,0.00000004,-0.02065066,-
 0.00223166,0.00000025,0.01536291,0.00427344,-0.00000006,-0.05500677,0.
 01861744,-0.00000019,-0.38100146,-0.04610149,0.00000390,-0.05365122,-0
 .01215856,0.00000088,-0.00116592,0.00019891,0.,0.00391642,-0.00007673,
 -0.00000011,0.01821623,-0.00019237,-0.00000014,-0.00572285,-0.00349851
 ,0.00000014,-0.00557324,0.00351490,-0.00000002,-0.00076842,-0.00005405
 ,-0.00000004,0.00165986,-0.00053350,-0.00000003,0.60444197,0.00901962,
 -0.01223198,0.00000089,-0.00025823,0.01023660,-0.00000051,-0.00819637,
 -0.01356466,0.00000106,0.06186088,0.00583260,-0.00000029,0.01410532,-0
 .13603213,0.00000219,-0.05478725,0.00394923,0.00000081,-0.00157283,0.0
 0037332,-0.00000003,0.00031179,0.00346677,-0.00000032,-0.00010184,-0.0
 0033568,-0.00000003,0.00040779,0.00081664,-0.00000003,-0.00033091,0.00
 081714,-0.00000002,0.00173599,0.00035438,-0.00000005,-0.00121936,0.002
 79965,-0.00000030,-0.17455050,0.65368159,-0.00000050,0.00000119,0.0090
 4802,-0.00000006,-0.00000067,-0.00059225,0.00000070,0.00000084,0.00587
 893,-0.00000244,0.00000038,0.00964053,0.00000333,0.00000251,-0.0559364
 2,0.00000321,0.00000046,0.01316059,0.00000010,-0.00000006,-0.00089087,
 -0.00000009,-0.00000040,-0.00447344,0.,-0.00000005,-0.00081087,-0.0000
 0003,-0.00000003,0.00006260,0.00000004,-0.00000004,0.00005790,-0.00000
 005,-0.00000003,-0.00050558,0.,-0.00000031,-0.00385679,-0.00000308,-0.
 00001019,0.03402494,-0.00155422,0.00127695,-0.00000013,0.00109263,-0.0
 0135896,0.00000007,0.00055454,0.00262868,-0.00000018,-0.00767024,-0.00
 345935,0.00000030,-0.02569340,0.05457792,-0.00000094,0.00464395,0.0014
 2932,-0.00000017,0.00021788,-0.00004940,0.,-0.00044518,-0.00223961,0.0
 0000019,-0.00142137,0.00006237,0.00000003,0.00054409,0.00008224,0.,0.0
 0069261,-0.00046178,0.,-0.00042308,-0.00012738,0.,0.00020026,-0.000003
 60,0.00000001,-0.13145044,0.15357592,-0.00000113,0.16071199,0.00067116
 ,-0.00088657,0.00000006,-0.00154845,-0.00044680,0.00000005,0.00131715,
 0.00044343,0.00000003,-0.00324138,0.00263501,-0.00000004,-0.00254544,0
 .00488601,0.00000004,-0.00579071,0.00315133,-0.00000017,-0.00018058,-0
 .00000158,0.,0.00006753,-0.00093477,0.00000006,0.00132729,0.00004682,-
 0.00000002,-0.00039554,-0.00035279,0.00000001,-0.00028764,0.00014967,0
 .,-0.00004087,0.00003574,-0.00000002,-0.00010024,0.00021550,-0.0000000
 4,0.21668107,-0.52016348,0.00000640,-0.20593333,0.51122248,-0.00000003
 ,-0.00000009,-0.00069165,0.00000021,0.00000015,0.00019334,-0.00000029,
 0.00000007,0.00186830,0.00000022,-0.00000012,0.00271295,-0.00000060,-0
 .00000043,-0.00276747,0.00000015,-0.00000017,-0.00145698,0.,0.,0.00008
 098,0.00000004,0.00000015,0.00071461,-0.00000013,0.00000002,-0.0000553
 7,0.00000003,0.00000002,-0.00003509,0.00000002,-0.00000003,-0.00002264
 ,-0.00000002,-0.00000002,-0.00039100,0.,-0.00000005,-0.00054944,-0.000
 00154,0.00000683,-0.00480729,0.00000194,-0.00000636,0.00520673\\0.0000
 8647,0.00001949,0.00000039,0.00007030,0.00005207,0.00000055,-0.0000083
 5,-0.00009193,0.00000005,0.00005461,-0.00003435,-0.00000015,0.00009686
 ,0.00004135,0.,-0.00011176,-0.00004704,0.00000003,-0.00001772,-0.00004
 329,-0.00000006,-0.00000196,-0.00000763,0.00000002,-0.00004999,-0.0000
 0670,-0.00000295,-0.00000335,-0.00009787,0.00000087,-0.00000048,0.0000
 9614,0.00000127,0.00000052,0.00004386,0.,-0.00000652,0.00002593,-0.000
 00006,-0.00008880,0.00013712,0.00000032,-0.00001985,-0.00008714,-0.000
 00027\\\@
 Job cpu time:       0 days  0 hours 30 minutes 12.9 seconds.
 Elapsed time:       0 days  0 hours  7 minutes 34.8 seconds.
 File lengths (MBytes):  RWF=   6497 Int=      0 D2E=      0 Chk=     21 Scr=      1
 Normal termination of Gaussian 16 at Sat Feb  4 13:55:14 2023.
